 Title = "ADflow Slice Data"
Variables =  "CoordinateX"  "CoordinateY"  "CoordinateZ"  "XoC"  "YoC"  "ZoC" "VelocityX" "VelocityY" "VelocityZ" "CoefPressure" "Mach" 
Zone T= "Slice_0001 None Absolute Regular z = 0.50000000"
 Nodes =          192  Elements=          184  ZONETYPE=FELINESEG
 DATAPACKING=POINT
  5.566560E-01  4.082820E-02  5.000000E-01  5.622776E-01  4.119386E-02  0.000000E+00  6.574843E-03 -5.937405E-05 -1.509967E-18  3.606411E-01  0.000000E+00
  5.776220E-01  4.054607E-02  5.000000E-01  5.834553E-01  4.090888E-02  0.000000E+00  6.655067E-03 -1.211732E-04 -2.383759E-19  3.576103E-01  0.000000E+00
  5.983370E-01  4.007238E-02  5.000000E-01  6.043795E-01  4.043040E-02  0.000000E+00  6.742759E-03 -1.876823E-04  7.094854E-19  3.550826E-01  0.000000E+00
  6.187480E-01  3.940375E-02  5.000000E-01  6.249966E-01  3.975503E-02  0.000000E+00  6.851811E-03 -2.599101E-04  7.393764E-19  3.518381E-01  0.000000E+00
  6.388030E-01  3.854062E-02  5.000000E-01  6.452541E-01  3.888318E-02  0.000000E+00  6.988817E-03 -3.383167E-04  9.690298E-19  3.473303E-01  0.000000E+00
  6.584530E-01  3.748652E-02  5.000000E-01  6.651026E-01  3.781843E-02  0.000000E+00  7.155296E-03 -4.222901E-04  6.771636E-19  3.415694E-01  0.000000E+00
  6.776550E-01  3.625232E-02  5.000000E-01  6.844985E-01  3.657178E-02  0.000000E+00  7.344119E-03 -5.066068E-04  5.533534E-19  3.339459E-01  0.000000E+00
  6.963720E-01  3.487460E-02  5.000000E-01  7.034045E-01  3.518014E-02  0.000000E+00  7.538253E-03 -5.841928E-04  1.266838E-18  3.242582E-01  0.000000E+00
  7.145680E-01  3.339550E-02  5.000000E-01  7.217843E-01  3.368610E-02  0.000000E+00  7.719797E-03 -6.514297E-04  1.249563E-18  3.135802E-01  0.000000E+00
  7.322140E-01  3.185324E-02  5.000000E-01  7.396085E-01  3.212826E-02  0.000000E+00  7.877214E-03 -7.073641E-04  2.343999E-19  3.029109E-01  0.000000E+00
  7.492860E-01  3.028022E-02  5.000000E-01  7.568529E-01  3.053936E-02  0.000000E+00  8.006294E-03 -7.523082E-04  4.152690E-19  2.928080E-01  0.000000E+00
  7.657630E-01  2.870229E-02  5.000000E-01  7.734963E-01  2.894549E-02  0.000000E+00  8.108960E-03 -7.877877E-04  6.117581E-19  2.833741E-01  0.000000E+00
  7.816300E-01  2.713871E-02  5.000000E-01  7.895235E-01  2.736612E-02  0.000000E+00  8.194169E-03 -8.196683E-04  3.205731E-19  2.747751E-01  0.000000E+00
  7.968740E-01  2.559231E-02  5.000000E-01  8.049215E-01  2.580411E-02  0.000000E+00  8.283424E-03 -8.598009E-04  8.666882E-19  2.679082E-01  0.000000E+00
  8.114890E-01  2.404186E-02  5.000000E-01  8.196841E-01  2.423800E-02  0.000000E+00  8.400377E-03 -9.135803E-04 -2.940293E-19  2.617928E-01  0.000000E+00
  8.254710E-01  2.248359E-02  5.000000E-01  8.338073E-01  2.266399E-02  0.000000E+00  8.549513E-03 -9.748439E-04 -1.483002E-18  2.541755E-01  0.000000E+00
  8.388180E-01  2.092752E-02  5.000000E-01  8.472891E-01  2.109221E-02  0.000000E+00  8.718573E-03 -1.036083E-03 -1.142622E-18  2.448131E-01  0.000000E+00
  8.515320E-01  1.938867E-02  5.000000E-01  8.601315E-01  1.953782E-02  0.000000E+00  8.894611E-03 -1.092893E-03  1.621209E-19  2.345387E-01  0.000000E+00
  8.636180E-01  1.788204E-02  5.000000E-01  8.723395E-01  1.801597E-02  0.000000E+00  9.069945E-03 -1.143559E-03  4.526033E-19  2.239738E-01  0.000000E+00
  8.750810E-01  1.642078E-02  5.000000E-01  8.839183E-01  1.653996E-02  0.000000E+00  9.240158E-03 -1.187763E-03  1.221937E-18  2.133741E-01  0.000000E+00
  8.859290E-01  1.501498E-02  5.000000E-01  8.948758E-01  1.511996E-02  0.000000E+00  9.402607E-03 -1.225896E-03  1.525529E-18  2.029285E-01  0.000000E+00
  8.961710E-01  1.367174E-02  5.000000E-01  9.052213E-01  1.376315E-02  0.000000E+00  9.556316E-03 -1.258663E-03  1.800857E-19  1.927783E-01  0.000000E+00
  9.058170E-01  1.239597E-02  5.000000E-01  9.149647E-01  1.247450E-02  0.000000E+00  9.701490E-03 -1.286837E-03  4.143465E-19  1.829908E-01  0.000000E+00
  9.148770E-01  1.119079E-02  5.000000E-01  9.241162E-01  1.125715E-02  0.000000E+00  9.838723E-03 -1.311050E-03 -5.053511E-19  1.735766E-01  0.000000E+00
  9.148770E-01  1.119079E-02  5.000000E-01  9.241162E-01  1.125715E-02  0.000000E+00  9.838723E-03 -1.311050E-03 -5.053511E-19  1.735766E-01  0.000000E+00
  9.233640E-01  1.005792E-02  5.000000E-01  9.326889E-01  1.011284E-02  0.000000E+00  9.968840E-03 -1.331990E-03 -2.120221E-18  1.645623E-01  0.000000E+00
  9.312880E-01  8.998131E-03  5.000000E-01  9.406929E-01  9.042347E-03  0.000000E+00  1.009311E-02 -1.350361E-03 -1.190135E-18  1.559722E-01  0.000000E+00
  9.386620E-01  8.011236E-03  5.000000E-01  9.481414E-01  8.045486E-03  0.000000E+00  1.021285E-02 -1.366768E-03  1.548161E-19  1.477849E-01  0.000000E+00
  9.454960E-01  7.096687E-03  5.000000E-01  9.550444E-01  7.121702E-03  0.000000E+00  1.032894E-02 -1.381610E-03 -4.029056E-20  1.399593E-01  0.000000E+00
  9.518040E-01  6.253319E-03  5.000000E-01  9.614161E-01  6.269816E-03  0.000000E+00  1.044238E-02 -1.395323E-03  2.298319E-19  1.324983E-01  0.000000E+00
  9.575950E-01  5.479964E-03  5.000000E-01  9.672656E-01  5.488652E-03  0.000000E+00  1.055513E-02 -1.408460E-03 -1.168730E-19  1.253863E-01  0.000000E+00
  9.628810E-01  4.775158E-03  5.000000E-01  9.726050E-01  4.776728E-03  0.000000E+00  1.067086E-02 -1.421670E-03 -4.961599E-19  1.185916E-01  0.000000E+00
  9.676710E-01  4.137484E-03  5.000000E-01  9.774433E-01  4.132614E-03  0.000000E+00  1.079609E-02 -1.435996E-03  1.012377E-19  1.121065E-01  0.000000E+00
  9.719750E-01  3.565486E-03  5.000000E-01  9.817908E-01  3.554839E-03  0.000000E+00  1.093939E-02 -1.452607E-03 -4.762447E-19  1.059246E-01  0.000000E+00
  9.758020E-01  3.057742E-03  5.000000E-01  9.856564E-01  3.041968E-03  0.000000E+00  1.110398E-02 -1.472000E-03 -3.886070E-18  1.000532E-01  0.000000E+00
  9.791590E-01  2.613000E-03  5.000000E-01  9.890473E-01  2.592734E-03  0.000000E+00  1.126734E-02 -1.491478E-03 -5.872945E-18  9.436254E-02  0.000000E+00
  9.820540E-01  2.230039E-03  5.000000E-01  9.919716E-01  2.205905E-03  0.000000E+00  1.136195E-02 -1.503108E-03  3.317104E-18  8.921212E-02  0.000000E+00
  9.844930E-01  1.907828E-03  5.000000E-01  9.944352E-01  1.880440E-03  0.000000E+00  1.126218E-02 -1.487139E-03  3.260134E-17  8.545964E-02  0.000000E+00
  9.864820E-01  1.645429E-03  5.000000E-01  9.964443E-01  1.615392E-03  0.000000E+00  1.065643E-02 -1.394287E-03  6.127821E-17  7.942375E-02  0.000000E+00
  9.880240E-01  1.442150E-03  5.000000E-01  9.980019E-01  1.410060E-03  0.000000E+00  9.073976E-03 -1.205231E-03 -3.214598E-17  6.558207E-02  0.000000E+00
  9.891220E-01  1.297380E-03  5.000000E-01  9.991110E-01  1.263828E-03  0.000000E+00  8.332943E-03 -1.209467E-03 -5.222923E-16  8.334392E-02  0.000000E+00
  9.897810E-01  1.210662E-03  5.000000E-01  9.997766E-01  1.176235E-03  0.000000E+00  1.554395E-02 -8.501894E-04 -1.578851E-15  1.753667E-01  0.000000E+00
  9.900000E-01  1.181803E-03  5.000000E-01  9.999978E-01  1.147084E-03  0.000000E+00  1.298775E-02 -1.901792E-03 -2.045208E-15 -6.498966E-02  0.000000E+00
  9.900000E-01  1.368024E-03  5.000000E-01  9.999978E-01  1.335185E-03  0.000000E+00  1.201967E-03 -1.369476E-02 -1.294259E-15 -2.063367E-01  0.000000E+00
  9.900000E-01  1.554234E-03  5.000000E-01  9.999978E-01  1.523276E-03  0.000000E+00 -7.364169E-04 -1.427356E-02 -3.507514E-16 -2.743325E-02  0.000000E+00
  9.900000E-01  1.740455E-03  5.000000E-01  9.999978E-01  1.711378E-03  0.000000E+00 -4.620827E-04  3.382607E-03  4.387127E-16 -3.721446E-02  0.000000E+00
  9.900000E-01  1.926676E-03  5.000000E-01  9.999978E-01  1.899479E-03  0.000000E+00  8.067341E-04  3.421501E-03  1.602142E-15 -1.600038E-01  0.000000E+00
  9.900000E-01  2.112897E-03  5.000000E-01  9.999978E-01  2.087581E-03  0.000000E+00  8.181837E-03 -4.722081E-03  2.447576E-15 -6.280686E-02  0.000000E+00
  9.900000E-01  2.112897E-03  5.000000E-01  9.999978E-01  2.087581E-03  0.000000E+00  8.181837E-03 -4.722081E-03  2.447576E-15 -6.280686E-02  0.000000E+00
  9.897920E-01  2.158984E-03  5.000000E-01  9.997877E-01  2.134133E-03  0.000000E+00  9.058160E-03 -2.828269E-03  1.752679E-15  7.905046E-02  0.000000E+00
  9.891660E-01  2.297198E-03  5.000000E-01  9.991554E-01  2.273743E-03  0.000000E+00  3.387058E-03 -6.587224E-04  5.659363E-16  7.966932E-03  0.000000E+00
  9.881230E-01  2.527313E-03  5.000000E-01  9.981019E-01  2.506182E-03  0.000000E+00  3.213332E-03 -7.045338E-04  4.463711E-17 -3.842566E-03  0.000000E+00
  9.866580E-01  2.849065E-03  5.000000E-01  9.966221E-01  2.831184E-03  0.000000E+00  3.766680E-03 -8.338527E-04 -5.758737E-17  2.662406E-03  0.000000E+00
  9.847700E-01  3.261963E-03  5.000000E-01  9.947150E-01  3.248251E-03  0.000000E+00  3.908012E-03 -8.519611E-04 -3.564086E-17  8.231719E-04  0.000000E+00
  9.824550E-01  3.765437E-03  5.000000E-01  9.923766E-01  3.756809E-03  0.000000E+00  3.951656E-03 -8.554823E-04 -1.012750E-17 -4.472926E-03  0.000000E+00
  9.797070E-01  4.358776E-03  5.000000E-01  9.896009E-01  4.356141E-03  0.000000E+00  4.030855E-03 -8.669196E-04 -7.250540E-19 -1.037235E-02  0.000000E+00
  9.765220E-01  5.041104E-03  5.000000E-01  9.863837E-01  5.045359E-03  0.000000E+00  4.154120E-03 -8.858262E-04  7.385181E-19 -1.724217E-02  0.000000E+00
  9.728930E-01  5.811438E-03  5.000000E-01  9.827181E-01  5.823472E-03  0.000000E+00  4.318681E-03 -9.118888E-04  8.123207E-19 -2.516346E-02  0.000000E+00
  9.688130E-01  6.668620E-03  5.000000E-01  9.785969E-01  6.689311E-03  0.000000E+00  4.517675E-03 -9.435463E-04 -5.011121E-19 -3.395306E-02  0.000000E+00
  9.642740E-01  7.611387E-03  5.000000E-01  9.740120E-01  7.641599E-03  0.000000E+00  4.741080E-03 -9.784043E-04 -1.561782E-18 -4.344027E-02  0.000000E+00
  9.592670E-01  8.638345E-03  5.000000E-01  9.689545E-01  8.678928E-03  0.000000E+00  4.980199E-03 -1.014530E-03 -8.125317E-19 -5.355593E-02  0.000000E+00
  9.537850E-01  9.747931E-03  5.000000E-01  9.634171E-01  9.799719E-03  0.000000E+00  5.228922E-03 -1.050452E-03  1.671637E-19 -6.414968E-02  0.000000E+00
  9.478160E-01  1.093853E-02  5.000000E-01  9.573878E-01  1.100234E-02  0.000000E+00  5.482499E-03 -1.085121E-03  3.505706E-19 -7.512265E-02  0.000000E+00
  9.413520E-01  1.220846E-02  5.000000E-01  9.508585E-01  1.228510E-02  0.000000E+00  5.737375E-03 -1.117854E-03 -3.396757E-19 -8.637833E-02  0.000000E+00
  9.343800E-01  1.355611E-02  5.000000E-01  9.438161E-01  1.364635E-02  0.000000E+00  5.990366E-03 -1.148115E-03  1.296303E-19 -9.779604E-02  0.000000E+00
  9.268920E-01  1.497955E-02  5.000000E-01  9.362525E-01  1.508417E-02  0.000000E+00  6.238554E-03 -1.175520E-03  6.414723E-19 -1.093153E-01  0.000000E+00
  9.188750E-01  1.647737E-02  5.000000E-01  9.281545E-01  1.659712E-02  0.000000E+00  6.479325E-03 -1.199808E-03  1.086621E-18 -1.208294E-01  0.000000E+00
  9.103190E-01  1.804809E-02  5.000000E-01  9.195121E-01  1.818370E-02  0.000000E+00  6.710034E-03 -1.220879E-03  2.090563E-18 -1.322796E-01  0.000000E+00
  9.012130E-01  1.969057E-02  5.000000E-01  9.103142E-01  1.984276E-02  0.000000E+00  6.928332E-03 -1.238683E-03  1.736279E-18 -1.436024E-01  0.000000E+00
  8.915460E-01  2.140400E-02  5.000000E-01  9.005496E-01  2.157350E-02  0.000000E+00  7.132188E-03 -1.253418E-03  8.355378E-19 -1.547805E-01  0.000000E+00
  8.813080E-01  2.318825E-02  5.000000E-01  8.902082E-01  2.337577E-02  0.000000E+00  7.320168E-03 -1.265478E-03  5.463280E-19 -1.658144E-01  0.000000E+00
  8.704900E-01  2.504366E-02  5.000000E-01  8.792809E-01  2.524991E-02  0.000000E+00  7.491429E-03 -1.275393E-03  1.174298E-18 -1.767233E-01  0.000000E+00
  8.704900E-01  2.504366E-02  5.000000E-01  8.792809E-01  2.524991E-02  0.000000E+00  7.491429E-03 -1.275393E-03  1.174298E-18 -1.767233E-01  0.000000E+00
  8.590830E-01  2.697158E-02  5.000000E-01  8.677587E-01  2.719730E-02  0.000000E+00  7.646100E-03 -1.284094E-03  1.493354E-18 -1.876200E-01  0.000000E+00
  8.470810E-01  2.897458E-02  5.000000E-01  8.556355E-01  2.922054E-02  0.000000E+00  7.786151E-03 -1.292718E-03  1.930173E-19 -1.986972E-01  0.000000E+00
  8.344780E-01  3.105640E-02  5.000000E-01  8.429052E-01  3.132338E-02  0.000000E+00  7.915654E-03 -1.302474E-03 -9.981103E-19 -2.101824E-01  0.000000E+00
  8.212700E-01  3.322142E-02  5.000000E-01  8.295638E-01  3.351026E-02  0.000000E+00  8.041144E-03 -1.314659E-03 -6.982797E-19 -2.224587E-01  0.000000E+00
  8.074550E-01  3.547414E-02  5.000000E-01  8.156093E-01  3.578573E-02  0.000000E+00  8.172761E-03 -1.330495E-03 -1.374540E-18 -2.360845E-01  0.000000E+00
  7.930350E-01  3.781760E-02  5.000000E-01  8.010437E-01  3.815286E-02  0.000000E+00  8.323619E-03 -1.350476E-03 -1.343642E-18 -2.514799E-01  0.000000E+00
  7.780130E-01  4.025083E-02  5.000000E-01  7.858700E-01  4.061066E-02  0.000000E+00  8.505771E-03 -1.373872E-03  7.697258E-20 -2.686568E-01  0.000000E+00
  7.623950E-01  4.276653E-02  5.000000E-01  7.700943E-01  4.315176E-02  0.000000E+00  8.726911E-03 -1.399587E-03  3.568145E-20 -2.876178E-01  0.000000E+00
  7.461930E-01  4.535377E-02  5.000000E-01  7.537287E-01  4.576513E-02  0.000000E+00  8.991462E-03 -1.426440E-03 -3.895746E-19 -3.084746E-01  0.000000E+00
  7.294180E-01  4.799792E-02  5.000000E-01  7.367843E-01  4.843599E-02  0.000000E+00  9.301880E-03 -1.452601E-03 -5.539480E-19 -3.312278E-01  0.000000E+00
  7.120900E-01  5.067911E-02  5.000000E-01  7.192813E-01  5.114425E-02  0.000000E+00  9.658204E-03 -1.475039E-03 -1.319485E-18 -3.557298E-01  0.000000E+00
  6.942280E-01  5.337207E-02  5.000000E-01  7.012389E-01  5.386441E-02  0.000000E+00  1.005593E-02 -1.489582E-03 -7.010521E-19 -3.813243E-01  0.000000E+00
  6.758590E-01  5.604656E-02  5.000000E-01  6.826844E-01  5.656591E-02  0.000000E+00  1.048113E-02 -1.491405E-03  1.778542E-19 -4.065028E-01  0.000000E+00
  6.570120E-01  5.866933E-02  5.000000E-01  6.636470E-01  5.921517E-02  0.000000E+00  1.090854E-02 -1.477705E-03 -4.614409E-19 -4.298285E-01  0.000000E+00
  6.377220E-01  6.121397E-02  5.000000E-01  6.441622E-01  6.178550E-02  0.000000E+00  1.131157E-02 -1.451606E-03 -5.249722E-19 -4.514783E-01  0.000000E+00
  6.180260E-01  6.367308E-02  5.000000E-01  6.242673E-01  6.426945E-02  0.000000E+00  1.167766E-02 -1.418110E-03 -9.514207E-20 -4.721736E-01  0.000000E+00
  5.979670E-01  6.604270E-02  5.000000E-01  6.040058E-01  6.666300E-02  0.000000E+00  1.201005E-02 -1.379889E-03 -1.043396E-18 -4.923713E-01  0.000000E+00
  5.775910E-01  6.831959E-02  5.000000E-01  5.834240E-01  6.896288E-02  0.000000E+00  1.232316E-02 -1.339173E-03 -9.434016E-19 -5.131756E-01  0.000000E+00
  5.569470E-01  7.050054E-02  5.000000E-01  5.625715E-01  7.116585E-02  0.000000E+00  1.264156E-02 -1.297177E-03  1.749858E-18 -5.360044E-01  0.000000E+00
  5.360860E-01  7.257887E-02  5.000000E-01  5.414998E-01  7.326518E-02  0.000000E+00  1.299324E-02 -1.250333E-03  1.778362E-18 -5.611430E-01  0.000000E+00
  5.150640E-01  7.453233E-02  5.000000E-01  5.202655E-01  7.523836E-02  0.000000E+00  1.339560E-02 -1.191492E-03 -3.895748E-19 -5.877512E-01  0.000000E+00
  4.939370E-01  7.632983E-02  5.000000E-01  4.989252E-01  7.705401E-02  0.000000E+00  1.384847E-02 -1.115353E-03 -1.003959E-18 -6.150668E-01  0.000000E+00
  4.727610E-01  7.794193E-02  5.000000E-01  4.775353E-01  7.868240E-02  0.000000E+00  1.433801E-02 -1.018426E-03 -1.180350E-18 -6.419091E-01  0.000000E+00
  5.770140E-06 -6.587415E-05  5.000000E-01  5.829536E-06 -1.131934E-04  0.000000E+00  7.662910E-03 -4.799470E-02 -3.968044E-13  8.012174E-01  0.000000E+00
  9.104010E-05 -3.970379E-04  5.000000E-01  9.196062E-05 -4.477014E-04  0.000000E+00  2.830831E-02 -5.413689E-02 -3.444463E-13  7.341936E-01  0.000000E+00
  4.796980E-04 -9.095194E-04  5.000000E-01  4.845435E-04 -9.653585E-04  0.000000E+00  4.656996E-02 -4.334944E-02 -2.298103E-13  3.443618E-01  0.000000E+00
  1.456590E-03 -1.502849E-03  5.000000E-01  1.471301E-03 -1.564680E-03  0.000000E+00  4.513680E-02 -2.258739E-02 -1.109926E-13  2.624615E-02  0.000000E+00
  3.096410E-03 -2.078013E-03  5.000000E-01  3.127681E-03 -2.145653E-03  0.000000E+00  3.421643E-02 -1.039345E-02 -3.425519E-14 -3.050627E-02  0.000000E+00
  5.335170E-03 -2.613296E-03  5.000000E-01  5.389050E-03 -2.686341E-03  0.000000E+00  2.645850E-02 -5.539794E-03 -1.788041E-15 -5.246304E-03  0.000000E+00
  8.129670E-03 -3.102597E-03  5.000000E-01  8.211771E-03 -3.180583E-03  0.000000E+00  2.243039E-02 -3.427061E-03  5.342222E-15 -5.683025E-03  0.000000E+00
  1.145600E-02 -3.527618E-03  5.000000E-01  1.157169E-02 -3.609897E-03  0.000000E+00  1.956015E-02 -2.029531E-03  3.761247E-15 -3.167761E-02  0.000000E+00
  1.529970E-02 -3.820765E-03  5.000000E-01  1.545421E-02 -3.906004E-03  0.000000E+00  1.633987E-02 -8.067293E-04  1.402100E-15 -6.338273E-02  0.000000E+00
  1.962420E-02 -3.888008E-03  5.000000E-01  1.982238E-02 -3.973926E-03  0.000000E+00  1.288283E-02  3.025316E-05  2.161407E-16 -6.370012E-02  0.000000E+00
  2.439810E-02 -3.750484E-03  5.000000E-01  2.464449E-02 -3.835013E-03  0.000000E+00  1.061326E-02  3.014640E-04 -9.502580E-17 -5.545095E-04  0.000000E+00
  2.966100E-02 -3.600393E-03  5.000000E-01  2.996054E-02 -3.683406E-03  0.000000E+00  1.039874E-02  2.512992E-04 -8.566733E-17  7.394545E-02  0.000000E+00
  3.543640E-02 -3.501180E-03  5.000000E-01  3.579427E-02 -3.583191E-03  0.000000E+00  1.138993E-02  1.616238E-04 -3.130309E-17  9.654398E-02  0.000000E+00
  4.172970E-02 -3.432432E-03  5.000000E-01  4.215112E-02 -3.513749E-03  0.000000E+00  1.235415E-02  1.364614E-04 -1.783116E-18  8.310169E-02  0.000000E+00
  4.854440E-02 -3.353589E-03  5.000000E-01  4.903464E-02 -3.434110E-03  0.000000E+00  1.280084E-02  1.995770E-04  5.229620E-18  6.324529E-02  0.000000E+00
  5.588220E-02 -3.208134E-03  5.000000E-01  5.644654E-02 -3.287187E-03  0.000000E+00  1.281114E-02  3.133711E-04  3.122803E-18  5.025603E-02  0.000000E+00
  6.375220E-02 -2.976774E-03  5.000000E-01  6.439602E-02 -3.053490E-03  0.000000E+00  1.265186E-02  4.164204E-04  6.147364E-19  4.770830E-02  0.000000E+00
  7.217040E-02 -2.669082E-03  5.000000E-01  7.289924E-02 -2.742691E-03  0.000000E+00  1.253406E-02  4.852421E-04  4.146909E-19  5.071167E-02  0.000000E+00
  8.115500E-02 -2.302552E-03  5.000000E-01  8.197457E-02 -2.372459E-03  0.000000E+00  1.251575E-02  5.355030E-04  1.332349E-19  5.223611E-02  0.000000E+00
  9.072040E-02 -1.875671E-03  5.000000E-01  9.163657E-02 -1.941267E-03  0.000000E+00  1.254336E-02  5.913524E-04  3.052294E-19  4.900719E-02  0.000000E+00
  1.008780E-01 -1.371431E-03  5.000000E-01  1.018967E-01 -1.431935E-03  0.000000E+00  1.255058E-02  6.619355E-04  1.423484E-18  4.334441E-02  0.000000E+00
  1.116380E-01 -7.700445E-04  5.000000E-01  1.127654E-01 -8.244750E-04  0.000000E+00  1.250090E-02  7.475510E-04  1.758965E-18  3.803660E-02  0.000000E+00
  1.230100E-01 -4.518262E-05  5.000000E-01  1.242523E-01 -9.229286E-05  0.000000E+00  1.236805E-02  8.473338E-04  1.563751E-18  3.408878E-02  0.000000E+00
  1.350030E-01  8.344024E-04  5.000000E-01  1.363664E-01  7.961749E-04  0.000000E+00  1.212198E-02  9.576218E-04  9.766259E-19  3.239555E-02  0.000000E+00
  1.350030E-01  8.344024E-04  5.000000E-01  1.363664E-01  7.961749E-04  0.000000E+00  1.212198E-02  9.576218E-04  9.766259E-19  3.239555E-02  0.000000E+00
  1.476220E-01  1.904485E-03  5.000000E-01  1.491128E-01  1.877064E-03  0.000000E+00  1.173708E-02  1.071458E-03  7.713516E-19  3.430539E-02  0.000000E+00
  1.608730E-01  3.203720E-03  5.000000E-01  1.624976E-01  3.189420E-03  0.000000E+00  1.120721E-02  1.178940E-03  1.101494E-18  4.142877E-02  0.000000E+00
  1.747560E-01  4.769096E-03  5.000000E-01  1.765208E-01  4.770605E-03  0.000000E+00  1.055581E-02  1.267282E-03  1.702789E-18  5.501856E-02  0.000000E+00
  1.892730E-01  6.625016E-03  5.000000E-01  1.911844E-01  6.645267E-03  0.000000E+00  9.837337E-03  1.320133E-03  1.649897E-18  7.566898E-02  0.000000E+00
  2.044180E-01  8.763078E-03  5.000000E-01  2.064824E-01  8.804921E-03  0.000000E+00  9.136942E-03  1.322422E-03  1.168688E-18  1.045501E-01  0.000000E+00
  2.201880E-01  1.110797E-02  5.000000E-01  2.224116E-01  1.117350E-02  0.000000E+00  8.527791E-03  1.281168E-03  1.099945E-18  1.383023E-01  0.000000E+00
  2.365750E-01  1.359369E-02  5.000000E-01  2.389641E-01  1.368431E-02  0.000000E+00  8.015066E-03  1.220710E-03 -6.468735E-19  1.694603E-01  0.000000E+00
  2.535710E-01  1.619065E-02  5.000000E-01  2.561318E-01  1.630750E-02  0.000000E+00  7.562613E-03  1.153648E-03 -1.331612E-18  1.963710E-01  0.000000E+00
  2.711570E-01  1.886935E-02  5.000000E-01  2.738954E-01  1.901326E-02  0.000000E+00  7.150267E-03  1.080732E-03 -8.106874E-19  2.217001E-01  0.000000E+00
  2.893100E-01  2.159182E-02  5.000000E-01  2.922317E-01  2.176322E-02  0.000000E+00  6.783134E-03  1.001717E-03 -7.337883E-19  2.467306E-01  0.000000E+00
  3.080020E-01  2.430721E-02  5.000000E-01  3.111125E-01  2.450603E-02  0.000000E+00  6.471530E-03  9.180628E-04  1.835634E-19  2.707531E-01  0.000000E+00
  3.271950E-01  2.696128E-02  5.000000E-01  3.304993E-01  2.718690E-02  0.000000E+00  6.219881E-03  8.318937E-04 -9.188627E-19  2.928075E-01  0.000000E+00
  3.468470E-01  2.949704E-02  5.000000E-01  3.503497E-01  2.974827E-02  0.000000E+00  6.027750E-03  7.456097E-04 -1.930860E-18  3.123129E-01  0.000000E+00
  3.669110E-01  3.186833E-02  5.000000E-01  3.706164E-01  3.214351E-02  0.000000E+00  5.893119E-03  6.611402E-04 -8.247545E-19  3.289524E-01  0.000000E+00
  3.873360E-01  3.403496E-02  5.000000E-01  3.912476E-01  3.433202E-02  0.000000E+00  5.816439E-03  5.780063E-04  8.892213E-19  3.429719E-01  0.000000E+00
  4.080670E-01  3.595513E-02  5.000000E-01  4.121880E-01  3.627158E-02  0.000000E+00  5.801328E-03  4.935403E-04  1.934096E-18  3.546319E-01  0.000000E+00
  4.290470E-01  3.758271E-02  5.000000E-01  4.333799E-01  3.791560E-02  0.000000E+00  5.850377E-03  4.050374E-04  1.849354E-18  3.639545E-01  0.000000E+00
  4.502140E-01  3.887404E-02  5.000000E-01  4.547606E-01  3.921996E-02  0.000000E+00  5.956172E-03  3.139430E-04  2.734182E-18  3.700791E-01  0.000000E+00
  4.715070E-01  3.982171E-02  5.000000E-01  4.762687E-01  4.017721E-02  0.000000E+00  6.095549E-03  2.257750E-04  2.749756E-18  3.719465E-01  0.000000E+00
  4.928620E-01  4.045618E-02  5.000000E-01  4.978393E-01  4.081809E-02  0.000000E+00  6.240463E-03  1.440822E-04  1.888872E-18  3.705308E-01  0.000000E+00
  5.142140E-01  4.081182E-02  5.000000E-01  5.194069E-01  4.117732E-02  0.000000E+00  6.372670E-03  6.943533E-05  6.783465E-19  3.677580E-01  0.000000E+00
  5.355000E-01  4.092366E-02  5.000000E-01  5.409079E-01  4.129029E-02  0.000000E+00  6.484249E-03  2.234532E-06 -1.058629E-18  3.643337E-01  0.000000E+00
  5.566560E-01  4.082820E-02  5.000000E-01  5.622776E-01  4.119386E-02  0.000000E+00  6.574843E-03 -5.937405E-05 -1.509967E-18  3.606411E-01  0.000000E+00
  4.727610E-01  7.794193E-02  5.000000E-01  4.775353E-01  7.868240E-02  0.000000E+00  1.433801E-02 -1.018426E-03 -1.180350E-18 -6.419091E-01  0.000000E+00
  4.515970E-01  7.934132E-02  5.000000E-01  4.561576E-01  8.009592E-02  0.000000E+00  1.483808E-02 -8.978380E-04 -6.971187E-19 -6.661421E-01  0.000000E+00
  4.305020E-01  8.050412E-02  5.000000E-01  4.348496E-01  8.127047E-02  0.000000E+00  1.531281E-02 -7.565378E-04 -5.397193E-19 -6.866819E-01  0.000000E+00
  4.095340E-01  8.142370E-02  5.000000E-01  4.136698E-01  8.219933E-02  0.000000E+00  1.573425E-02 -6.049190E-04 -8.503354E-19 -7.049506E-01  0.000000E+00
  3.887520E-01  8.211255E-02  5.000000E-01  3.926779E-01  8.289514E-02  0.000000E+00  1.610050E-02 -4.499412E-04 -3.092274E-19 -7.226451E-01  0.000000E+00
  3.682080E-01  8.258181E-02  5.000000E-01  3.719265E-01  8.336913E-02  0.000000E+00  1.642929E-02 -2.907232E-04  6.353901E-19 -7.404034E-01  0.000000E+00
  3.479570E-01  8.283782E-02  5.000000E-01  3.514710E-01  8.362773E-02  0.000000E+00  1.674124E-02 -1.240471E-04  1.419252E-18 -7.583403E-01  0.000000E+00
  3.280470E-01  8.288314E-02  5.000000E-01  3.313599E-01  8.367351E-02  0.000000E+00  1.705078E-02  5.165188E-05  8.998681E-19 -7.764817E-01  0.000000E+00
  3.085240E-01  8.272234E-02  5.000000E-01  3.116397E-01  8.351109E-02  0.000000E+00  1.736623E-02  2.354623E-04 -4.370164E-19 -7.953172E-01  0.000000E+00
  2.894320E-01  8.236402E-02  5.000000E-01  2.923549E-01  8.314914E-02  0.000000E+00  1.769628E-02  4.280899E-04 -7.590157E-19 -8.158001E-01  0.000000E+00
  2.708110E-01  8.181490E-02  5.000000E-01  2.735459E-01  8.259448E-02  0.000000E+00  1.805853E-02  6.344665E-04 -2.230694E-19 -8.401876E-01  0.000000E+00
  2.526960E-01  8.107718E-02  5.000000E-01  2.552479E-01  8.184931E-02  0.000000E+00  1.849368E-02  8.649941E-04 -6.255369E-19 -8.725190E-01  0.000000E+00
  2.351200E-01  8.014950E-02  5.000000E-01  2.374944E-01  8.091226E-02  0.000000E+00  1.906733E-02  1.149527E-03 -6.764644E-19 -9.133283E-01  0.000000E+00
  2.181120E-01  7.900092E-02  5.000000E-01  2.203147E-01  7.975208E-02  0.000000E+00  1.981975E-02  1.536139E-03 -3.267055E-19 -9.561546E-01  0.000000E+00
  2.017010E-01  7.757286E-02  5.000000E-01  2.037379E-01  7.830960E-02  0.000000E+00  2.071499E-02  2.049887E-03 -1.614002E-18 -9.954452E-01  0.000000E+00
  1.859190E-01  7.583064E-02  5.000000E-01  1.877966E-01  7.654978E-02  0.000000E+00  2.167585E-02  2.687682E-03 -1.789064E-18 -1.029217E+00  0.000000E+00
  1.707920E-01  7.375791E-02  5.000000E-01  1.725168E-01  7.445613E-02  0.000000E+00  2.263127E-02  3.449113E-03 -1.620084E-18 -1.053704E+00  0.000000E+00
  1.563470E-01  7.134356E-02  5.000000E-01  1.579259E-01  7.201739E-02  0.000000E+00  2.350923E-02  4.332117E-03 -1.596255E-18 -1.063486E+00  0.000000E+00
  1.426070E-01  6.858504E-02  5.000000E-01  1.440472E-01  6.923101E-02  0.000000E+00  2.422841E-02  5.312627E-03 -8.338711E-19 -1.054307E+00  0.000000E+00
  1.295900E-01  6.549660E-02  5.000000E-01  1.308987E-01  6.611138E-02  0.000000E+00  2.471440E-02  6.341407E-03 -2.711097E-18 -1.024607E+00  0.000000E+00
  1.173060E-01  6.211128E-02  5.000000E-01  1.184907E-01  6.269188E-02  0.000000E+00  2.492191E-02  7.361420E-03 -3.491361E-18 -9.747960E-01  0.000000E+00
  1.057600E-01  5.847365E-02  5.000000E-01  1.068281E-01  5.901751E-02  0.000000E+00  2.484173E-02  8.322390E-03 -1.296726E-18 -9.065250E-01  0.000000E+00
  9.495290E-02  5.463599E-02  5.000000E-01  9.591181E-02  5.514109E-02  0.000000E+00  2.449825E-02  9.183421E-03  8.501722E-19 -8.230374E-01  0.000000E+00
  8.487680E-02  5.065636E-02  5.000000E-01  8.573396E-02  5.112128E-02  0.000000E+00  2.394181E-02  9.920453E-03  4.264352E-18 -7.273820E-01  0.000000E+00
  8.487680E-02  5.065636E-02  5.000000E-01  8.573396E-02  5.112128E-02  0.000000E+00  2.394181E-02  9.920453E-03  4.264352E-18 -7.273820E-01  0.000000E+00
  7.552090E-02  4.659415E-02  5.000000E-01  7.628357E-02  4.701804E-02  0.000000E+00  2.321922E-02  1.052060E-02  9.794142E-18 -6.206602E-01  0.000000E+00
  6.687020E-02  4.250655E-02  5.000000E-01  6.754551E-02  4.288917E-02  0.000000E+00  2.235406E-02  1.095333E-02  1.144877E-17 -5.055082E-01  0.000000E+00
  5.889940E-02  3.845652E-02  5.000000E-01  5.949421E-02  3.879823E-02  0.000000E+00  2.138085E-02  1.118398E-02  8.171930E-18 -3.888432E-01  0.000000E+00
  5.157140E-02  3.450842E-02  5.000000E-01  5.209221E-02  3.481026E-02  0.000000E+00  2.038782E-02  1.123605E-02  6.302338E-18 -2.786091E-01  0.000000E+00
  4.484650E-02  3.071509E-02  5.000000E-01  4.529940E-02  3.097863E-02  0.000000E+00  1.950611E-02  1.122108E-02  7.661898E-18 -1.788120E-01  0.000000E+00
  3.869820E-02  2.710673E-02  5.000000E-01  3.908901E-02  2.733382E-02  0.000000E+00  1.885792E-02  1.129263E-02  1.748316E-18 -8.846187E-02  0.000000E+00
  3.311550E-02  2.369472E-02  5.000000E-01  3.344993E-02  2.388735E-02  0.000000E+00  1.849647E-02  1.155988E-02 -1.851847E-17 -2.769852E-03  0.000000E+00
  2.809130E-02  2.048602E-02  5.000000E-01  2.837499E-02  2.064625E-02  0.000000E+00  1.828457E-02  1.198852E-02 -4.339321E-17  9.255973E-02  0.000000E+00
  2.362330E-02  1.748415E-02  5.000000E-01  2.386187E-02  1.761407E-02  0.000000E+00  1.786023E-02  1.224891E-02 -8.198633E-17  2.069233E-01  0.000000E+00
  1.966610E-02  1.471326E-02  5.000000E-01  1.986471E-02  1.481519E-02  0.000000E+00  1.704149E-02  1.189084E-02 -1.390080E-16  3.156977E-01  0.000000E+00
  1.609460E-02  1.222768E-02  5.000000E-01  1.625714E-02  1.230451E-02  0.000000E+00  1.614902E-02  1.101126E-02 -1.206989E-16  3.938792E-01  0.000000E+00
  1.282740E-02  1.004714E-02  5.000000E-01  1.295694E-02  1.010195E-02  0.000000E+00  1.571980E-02  1.027132E-02  3.014635E-16  4.452173E-01  0.000000E+00
  9.860990E-03  8.151510E-03  5.000000E-01  9.960575E-03  8.187176E-03  0.000000E+00  1.609764E-02  1.026139E-02  1.731296E-15  4.872878E-01  0.000000E+00
  7.251350E-03  6.493572E-03  5.000000E-01  7.324581E-03  6.512496E-03  0.000000E+00  1.729991E-02  1.119411E-02  4.396436E-15  5.336484E-01  0.000000E+00
  5.038810E-03  5.038883E-03  5.000000E-01  5.089697E-03  5.043116E-03  0.000000E+00  1.913004E-02  1.306661E-02  6.023888E-15  5.866218E-01  0.000000E+00
  3.239710E-03  3.769671E-03  5.000000E-01  3.272428E-03  3.761086E-03  0.000000E+00  2.104759E-02  1.583105E-02 -1.766259E-15  6.529041E-01  0.000000E+00
  1.861880E-03  2.676062E-03  5.000000E-01  1.880684E-03  2.656433E-03  0.000000E+00  2.143697E-02  1.877061E-02 -3.556527E-14  7.480825E-01  0.000000E+00
  9.013910E-04  1.756557E-03  5.000000E-01  9.104951E-04  1.727642E-03  0.000000E+00  1.705753E-02  1.854853E-02 -1.134679E-13  8.865068E-01  0.000000E+00
  3.295630E-04  1.019311E-03  5.000000E-01  3.328923E-04  9.829510E-04  0.000000E+00  6.063141E-03  7.024325E-03 -2.343227E-13  1.031631E+00  0.000000E+00
  7.194000E-05  4.800647E-04  5.000000E-01  7.266763E-05  4.382589E-04  0.000000E+00 -4.550849E-03 -2.199931E-02 -3.545284E-13  1.042791E+00  0.000000E+00
  4.516100E-06  1.544985E-04  5.000000E-01  4.562831E-06  1.094048E-04  0.000000E+00 -6.006422E-03 -5.123562E-02 -4.085988E-13  8.565266E-01  0.000000E+00
 -1.112850E-09  4.618752E-05  5.000000E-01  0.000000E+00  0.000000E+00  0.000000E+00 -1.493233E-03 -5.226193E-02 -4.066152E-13  7.229764E-01  0.000000E+00