 Title = "ADflow Slice Data"
Variables =  "CoordinateX"  "CoordinateY"  "CoordinateZ"  "XoC"  "YoC"  "ZoC" "VelocityX" "VelocityY" "VelocityZ" "CoefPressure" "Mach" 
Zone T= "Slice_0001 None Absolute Regular z = 0.50000000"
 Nodes =          192  Elements=          184  ZONETYPE=FELINESEG
 DATAPACKING=POINT
  5.566560E-01  2.094258E-02  5.000000E-01  5.622775E-01  2.114121E-02  0.000000E+00  7.845774E-03  2.202510E-04  2.231028E-18  2.305255E-01  0.000000E+00
  5.776220E-01  2.160426E-02  5.000000E-01  5.834552E-01  2.180957E-02  0.000000E+00  7.444411E-03  2.360619E-04  3.421479E-18  2.418516E-01  0.000000E+00
  5.983370E-01  2.226807E-02  5.000000E-01  6.043794E-01  2.248008E-02  0.000000E+00  7.122517E-03  2.087744E-04  1.210934E-18  2.597558E-01  0.000000E+00
  6.187480E-01  2.280545E-02  5.000000E-01  6.249966E-01  2.302288E-02  0.000000E+00  6.961638E-03  1.442035E-04  5.333581E-19  2.761203E-01  0.000000E+00
  6.388030E-01  2.310459E-02  5.000000E-01  6.452541E-01  2.332505E-02  0.000000E+00  6.990557E-03  4.537945E-05  1.010054E-18  2.871540E-01  0.000000E+00
  6.584530E-01  2.307193E-02  5.000000E-01  6.651025E-01  2.329206E-02  0.000000E+00  7.202437E-03 -8.370754E-05  3.011326E-19  2.926661E-01  0.000000E+00
  6.776550E-01  2.266330E-02  5.000000E-01  6.844984E-01  2.287930E-02  0.000000E+00  7.536451E-03 -2.136399E-04 -1.684269E-19  2.888157E-01  0.000000E+00
  6.963720E-01  2.200162E-02  5.000000E-01  7.034045E-01  2.221094E-02  0.000000E+00  7.877410E-03 -3.057139E-04  2.441873E-19  2.745857E-01  0.000000E+00
  7.145680E-01  2.123572E-02  5.000000E-01  7.217842E-01  2.143731E-02  0.000000E+00  8.121137E-03 -3.465944E-04 -1.229872E-19  2.575229E-01  0.000000E+00
  7.322140E-01  2.047484E-02  5.000000E-01  7.396084E-01  2.066875E-02  0.000000E+00  8.217389E-03 -3.427911E-04 -5.358987E-19  2.439430E-01  0.000000E+00
  7.492860E-01  1.978790E-02  5.000000E-01  7.568528E-01  1.997486E-02  0.000000E+00  8.160469E-03 -3.074679E-04 -1.222839E-18  2.358948E-01  0.000000E+00
  7.657630E-01  1.920992E-02  5.000000E-01  7.734962E-01  1.939105E-02  0.000000E+00  7.971392E-03 -2.551389E-04 -2.912577E-18  2.330241E-01  0.000000E+00
  7.816300E-01  1.875131E-02  5.000000E-01  7.895235E-01  1.892781E-02  0.000000E+00  7.696248E-03 -2.073263E-04 -4.048893E-18  2.350826E-01  0.000000E+00
  7.968740E-01  1.837463E-02  5.000000E-01  8.049214E-01  1.854732E-02  0.000000E+00  7.420279E-03 -1.943535E-04 -2.094048E-18  2.438743E-01  0.000000E+00
  8.114890E-01  1.797140E-02  5.000000E-01  8.196840E-01  1.814002E-02  0.000000E+00  7.234617E-03 -2.267228E-04 -1.433396E-18  2.560978E-01  0.000000E+00
  8.254710E-01  1.747695E-02  5.000000E-01  8.338072E-01  1.764058E-02  0.000000E+00  7.170930E-03 -2.889805E-04 -1.595228E-18  2.646472E-01  0.000000E+00
  8.388180E-01  1.687138E-02  5.000000E-01  8.472890E-01  1.702889E-02  0.000000E+00  7.205263E-03 -3.651846E-04  4.995708E-19  2.678275E-01  0.000000E+00
  8.515320E-01  1.616026E-02  5.000000E-01  8.601314E-01  1.631059E-02  0.000000E+00  7.304818E-03 -4.463168E-04  1.090753E-18  2.673219E-01  0.000000E+00
  8.636180E-01  1.536079E-02  5.000000E-01  8.723394E-01  1.550305E-02  0.000000E+00  7.448067E-03 -5.282456E-04  2.022801E-18  2.645368E-01  0.000000E+00
  8.750810E-01  1.449425E-02  5.000000E-01  8.839182E-01  1.462776E-02  0.000000E+00  7.620937E-03 -6.090281E-04  2.775364E-18  2.600197E-01  0.000000E+00
  8.859290E-01  1.358154E-02  5.000000E-01  8.948757E-01  1.370583E-02  0.000000E+00  7.812434E-03 -6.876470E-04  1.545285E-18  2.541295E-01  0.000000E+00
  8.961710E-01  1.264126E-02  5.000000E-01  9.052212E-01  1.275605E-02  0.000000E+00  8.014631E-03 -7.635171E-04 -1.116235E-18  2.472243E-01  0.000000E+00
  9.058170E-01  1.168980E-02  5.000000E-01  9.149646E-01  1.179499E-02  0.000000E+00  8.222667E-03 -8.363510E-04 -1.976376E-18  2.395752E-01  0.000000E+00
  9.148770E-01  1.074109E-02  5.000000E-01  9.241161E-01  1.083669E-02  0.000000E+00  8.433618E-03 -9.059653E-04 -5.127387E-19  2.313515E-01  0.000000E+00
  9.148770E-01  1.074109E-02  5.000000E-01  9.241161E-01  1.083669E-02  0.000000E+00  8.433618E-03 -9.059653E-04 -5.127387E-19  2.313515E-01  0.000000E+00
  9.233640E-01  9.806948E-03  5.000000E-01  9.326888E-01  9.893117E-03  0.000000E+00  8.645848E-03 -9.724159E-04  5.921080E-20  2.227172E-01  0.000000E+00
  9.312880E-01  8.897115E-03  5.000000E-01  9.406928E-01  8.974096E-03  0.000000E+00  8.858848E-03 -1.035937E-03  2.524065E-19  2.138114E-01  0.000000E+00
  9.386620E-01  8.019547E-03  5.000000E-01  9.481413E-01  8.087667E-03  0.000000E+00  9.072670E-03 -1.096778E-03  1.028492E-18  2.047166E-01  0.000000E+00
  9.454960E-01  7.180821E-03  5.000000E-01  9.550443E-01  7.240470E-03  0.000000E+00  9.287352E-03 -1.155091E-03  2.375187E-18  1.954846E-01  0.000000E+00
  9.518040E-01  6.386131E-03  5.000000E-01  9.614160E-01  6.437755E-03  0.000000E+00  9.503317E-03 -1.211157E-03  2.612431E-18  1.861910E-01  0.000000E+00
  9.575950E-01  5.639787E-03  5.000000E-01  9.672655E-01  5.683874E-03  0.000000E+00  9.722160E-03 -1.265414E-03 -2.713120E-20  1.768893E-01  0.000000E+00
  9.628810E-01  4.945145E-03  5.000000E-01  9.726049E-01  4.982216E-03  0.000000E+00  9.947430E-03 -1.318473E-03 -2.208859E-18  1.676081E-01  0.000000E+00
  9.676710E-01  4.304935E-03  5.000000E-01  9.774432E-01  4.335542E-03  0.000000E+00  1.018589E-02 -1.371417E-03 -2.276069E-18  1.584033E-01  0.000000E+00
  9.719750E-01  3.721291E-03  5.000000E-01  9.817907E-01  3.746003E-03  0.000000E+00  1.044669E-02 -1.425560E-03 -4.701372E-19  1.493250E-01  0.000000E+00
  9.758020E-01  3.195854E-03  5.000000E-01  9.856563E-01  3.215260E-03  0.000000E+00  1.073354E-02 -1.481567E-03  3.774641E-18  1.404241E-01  0.000000E+00
  9.791590E-01  2.729979E-03  5.000000E-01  9.890472E-01  2.744680E-03  0.000000E+00  1.102409E-02 -1.536661E-03  6.825009E-18  1.316284E-01  0.000000E+00
  9.820540E-01  2.324631E-03  5.000000E-01  9.919715E-01  2.335239E-03  0.000000E+00  1.125048E-02 -1.582193E-03  1.565448E-18  1.233830E-01  0.000000E+00
  9.844930E-01  1.980601E-03  5.000000E-01  9.944351E-01  1.987734E-03  0.000000E+00  1.128334E-02 -1.596277E-03 -8.673735E-18  1.165972E-01  0.000000E+00
  9.864820E-01  1.698422E-03  5.000000E-01  9.964442E-01  1.702706E-03  0.000000E+00  1.079843E-02 -1.524394E-03 -2.682062E-18  1.075703E-01  0.000000E+00
  9.880240E-01  1.478589E-03  5.000000E-01  9.980018E-01  1.480653E-03  0.000000E+00  9.311008E-03 -1.339528E-03 -3.867247E-17  9.119237E-02  0.000000E+00
  9.891220E-01  1.321385E-03  5.000000E-01  9.991109E-01  1.321862E-03  0.000000E+00  8.621715E-03 -1.344120E-03 -4.114534E-16  1.073956E-01  0.000000E+00
  9.897810E-01  1.226949E-03  5.000000E-01  9.997765E-01  1.226472E-03  0.000000E+00  1.569573E-02 -1.057498E-03 -1.415731E-15  1.961723E-01  0.000000E+00
  9.900000E-01  1.195482E-03  5.000000E-01  9.999977E-01  1.194687E-03  0.000000E+00  1.297718E-02 -2.174401E-03 -2.020386E-15 -4.533120E-02  0.000000E+00
  9.900000E-01  1.381702E-03  5.000000E-01  9.999977E-01  1.382788E-03  0.000000E+00  1.192771E-03 -1.391977E-02 -1.423347E-15 -1.856897E-01  0.000000E+00
  9.900000E-01  1.567913E-03  5.000000E-01  9.999977E-01  1.570879E-03  0.000000E+00 -7.276015E-04 -1.473992E-02 -4.377960E-16 -8.372244E-03  0.000000E+00
  9.900000E-01  1.754133E-03  5.000000E-01  9.999977E-01  1.758980E-03  0.000000E+00 -4.323462E-04  2.300799E-03  5.063811E-16 -1.864673E-02  0.000000E+00
  9.900000E-01  1.940353E-03  5.000000E-01  9.999977E-01  1.947080E-03  0.000000E+00  7.495388E-04  2.691984E-03  1.777093E-15 -1.332070E-01  0.000000E+00
  9.900000E-01  2.126574E-03  5.000000E-01  9.999977E-01  2.135181E-03  0.000000E+00  7.497724E-03 -4.641777E-03  2.582572E-15 -4.199258E-02  0.000000E+00
  9.900000E-01  2.126574E-03  5.000000E-01  9.999977E-01  2.135181E-03  0.000000E+00  7.497724E-03 -4.641777E-03  2.582572E-15 -4.199258E-02  0.000000E+00
  9.897920E-01  2.175647E-03  5.000000E-01  9.997876E-01  2.184751E-03  0.000000E+00  8.136479E-03 -2.682737E-03  1.792879E-15  8.907575E-02  0.000000E+00
  9.891660E-01  2.322858E-03  5.000000E-01  9.991553E-01  2.333448E-03  0.000000E+00  2.751880E-03 -5.631262E-04  5.562797E-16  2.151976E-02  0.000000E+00
  9.881230E-01  2.567990E-03  5.000000E-01  9.981018E-01  2.581056E-03  0.000000E+00  2.541470E-03 -5.932919E-04  1.960201E-17  9.447927E-03  0.000000E+00
  9.866580E-01  2.910885E-03  5.000000E-01  9.966220E-01  2.927413E-03  0.000000E+00  3.054389E-03 -7.212894E-04 -7.687743E-17  1.457297E-02  0.000000E+00
  9.847700E-01  3.351105E-03  5.000000E-01  9.947149E-01  3.372079E-03  0.000000E+00  3.206302E-03 -7.454170E-04 -4.473746E-17  1.175550E-02  0.000000E+00
  9.824550E-01  3.888168E-03  5.000000E-01  9.923765E-01  3.914565E-03  0.000000E+00  3.278918E-03 -7.573300E-04 -1.374756E-17  5.383302E-03  0.000000E+00
  9.797070E-01  4.521450E-03  5.000000E-01  9.896008E-01  4.554243E-03  0.000000E+00  3.393524E-03 -7.791322E-04 -2.388347E-18 -1.864137E-03  0.000000E+00
  9.765220E-01  5.250095E-03  5.000000E-01  9.863836E-01  5.290246E-03  0.000000E+00  3.556393E-03 -8.099866E-04  1.335351E-18 -1.032549E-02  0.000000E+00
  9.728930E-01  6.073105E-03  5.000000E-01  9.827180E-01  6.121568E-03  0.000000E+00  3.764565E-03 -8.493258E-04  2.570913E-18 -2.011331E-02  0.000000E+00
  9.688130E-01  6.989201E-03  5.000000E-01  9.785968E-01  7.046915E-03  0.000000E+00  4.012678E-03 -8.956524E-04  5.228712E-19 -3.109018E-02  0.000000E+00
  9.642740E-01  7.996856E-03  5.000000E-01  9.740119E-01  8.064746E-03  0.000000E+00  4.292922E-03 -9.467022E-04  3.698247E-20 -4.312285E-02  0.000000E+00
  9.592670E-01  9.094220E-03  5.000000E-01  9.689544E-01  9.173192E-03  0.000000E+00  4.598612E-03 -1.000568E-03  3.901812E-19 -5.616692E-02  0.000000E+00
  9.537850E-01  1.027902E-02  5.000000E-01  9.634170E-01  1.036995E-02  0.000000E+00  4.925124E-03 -1.055650E-03 -2.178730E-19 -7.008421E-02  0.000000E+00
  9.478160E-01  1.154856E-02  5.000000E-01  9.573877E-01  1.165231E-02  0.000000E+00  5.268835E-03 -1.110617E-03  2.764750E-19 -8.478903E-02  0.000000E+00
  9.413520E-01  1.289969E-02  5.000000E-01  9.508584E-01  1.301709E-02  0.000000E+00  5.627188E-03 -1.164385E-03  1.983630E-18 -1.001824E-01  0.000000E+00
  9.343800E-01  1.432870E-02  5.000000E-01  9.438160E-01  1.446053E-02  0.000000E+00  5.997852E-03 -1.215892E-03  9.623349E-19 -1.161259E-01  0.000000E+00
  9.268920E-01  1.583094E-02  5.000000E-01  9.362524E-01  1.597794E-02  0.000000E+00  6.378535E-03 -1.264077E-03 -1.583661E-18 -1.325128E-01  0.000000E+00
  9.188750E-01  1.740135E-02  5.000000E-01  9.281545E-01  1.756421E-02  0.000000E+00  6.766890E-03 -1.307807E-03 -1.637503E-18 -1.491692E-01  0.000000E+00
  9.103190E-01  1.903379E-02  5.000000E-01  9.195120E-01  1.921314E-02  0.000000E+00  7.160133E-03 -1.345924E-03 -6.817057E-19 -1.659419E-01  0.000000E+00
  9.012130E-01  2.072122E-02  5.000000E-01  9.103141E-01  2.091761E-02  0.000000E+00  7.554992E-03 -1.377085E-03 -9.497817E-19 -1.826066E-01  0.000000E+00
  8.915460E-01  2.245541E-02  5.000000E-01  9.005495E-01  2.266932E-02  0.000000E+00  7.947178E-03 -1.399916E-03  4.052568E-20 -1.989377E-01  0.000000E+00
  8.813080E-01  2.422724E-02  5.000000E-01  8.902081E-01  2.445904E-02  0.000000E+00  8.330894E-03 -1.412949E-03  1.022241E-18 -2.146127E-01  0.000000E+00
  8.704900E-01  2.602629E-02  5.000000E-01  8.792808E-01  2.627625E-02  0.000000E+00  8.697523E-03 -1.414611E-03  1.461985E-18 -2.291898E-01  0.000000E+00
  8.704900E-01  2.602629E-02  5.000000E-01  8.792808E-01  2.627625E-02  0.000000E+00  8.697523E-03 -1.414611E-03  1.461985E-18 -2.291898E-01  0.000000E+00
  8.590830E-01  2.784156E-02  5.000000E-01  8.677586E-01  2.810985E-02  0.000000E+00  9.035780E-03 -1.403869E-03  2.737152E-18 -2.423249E-01  0.000000E+00
  8.470810E-01  2.966249E-02  5.000000E-01  8.556354E-01  2.994917E-02  0.000000E+00  9.333382E-03 -1.380554E-03  2.519760E-18 -2.536670E-01  0.000000E+00
  8.344780E-01  3.147997E-02  5.000000E-01  8.429051E-01  3.178501E-02  0.000000E+00  9.576005E-03 -1.345645E-03  1.764133E-18 -2.625199E-01  0.000000E+00
  8.212700E-01  3.328869E-02  5.000000E-01  8.295638E-01  3.361200E-02  0.000000E+00  9.744100E-03 -1.302298E-03  1.836610E-18 -2.678370E-01  0.000000E+00
  8.074550E-01  3.509155E-02  5.000000E-01  8.156093E-01  3.543306E-02  0.000000E+00  9.817021E-03 -1.258101E-03  3.441901E-18 -2.694443E-01  0.000000E+00
  7.930350E-01  3.690671E-02  5.000000E-01  8.010436E-01  3.726655E-02  0.000000E+00  9.796123E-03 -1.226677E-03  3.680407E-18 -2.704359E-01  0.000000E+00
  7.780130E-01  3.877587E-02  5.000000E-01  7.858699E-01  3.915459E-02  0.000000E+00  9.731852E-03 -1.219961E-03  2.133151E-18 -2.759648E-01  0.000000E+00
  7.623950E-01  4.074708E-02  5.000000E-01  7.700942E-01  4.114571E-02  0.000000E+00  9.706035E-03 -1.232080E-03  2.023603E-18 -2.868226E-01  0.000000E+00
  7.461930E-01  4.281629E-02  5.000000E-01  7.537286E-01  4.323581E-02  0.000000E+00  9.776516E-03 -1.249239E-03  3.089178E-18 -3.013467E-01  0.000000E+00
  7.294180E-01  4.496051E-02  5.000000E-01  7.367842E-01  4.540168E-02  0.000000E+00  9.963337E-03 -1.265340E-03  2.785165E-18 -3.197448E-01  0.000000E+00
  7.120900E-01  4.714617E-02  5.000000E-01  7.192812E-01  4.760942E-02  0.000000E+00  1.026578E-02 -1.274277E-03  4.489548E-19 -3.415806E-01  0.000000E+00
  6.942280E-01  4.932730E-02  5.000000E-01  7.012388E-01  4.981257E-02  0.000000E+00  1.065952E-02 -1.265241E-03 -6.435342E-19 -3.643366E-01  0.000000E+00
  6.758590E-01  5.144758E-02  5.000000E-01  6.826843E-01  5.195427E-02  0.000000E+00  1.108405E-02 -1.225173E-03 -1.044255E-19 -3.826413E-01  0.000000E+00
  6.570120E-01  5.344498E-02  5.000000E-01  6.636470E-01  5.397184E-02  0.000000E+00  1.144173E-02 -1.151996E-03 -6.117120E-20 -3.917694E-01  0.000000E+00
  6.377220E-01  5.528853E-02  5.000000E-01  6.441622E-01  5.583401E-02  0.000000E+00  1.163991E-02 -1.068889E-03  1.206421E-18 -3.935632E-01  0.000000E+00
  6.180260E-01  5.702342E-02  5.000000E-01  6.242673E-01  5.758642E-02  0.000000E+00  1.164870E-02 -1.002584E-03  1.613347E-18 -3.918708E-01  0.000000E+00
  5.979670E-01  5.871029E-02  5.000000E-01  6.040057E-01  5.929032E-02  0.000000E+00  1.150060E-02 -9.638472E-04  6.670475E-19 -3.889249E-01  0.000000E+00
  5.775910E-01  6.041291E-02  5.000000E-01  5.834239E-01  6.101014E-02  0.000000E+00  1.126588E-02 -9.575316E-04  5.882398E-19 -3.895204E-01  0.000000E+00
  5.569470E-01  6.219536E-02  5.000000E-01  5.625714E-01  6.281059E-02  0.000000E+00  1.105077E-02 -9.848337E-04  7.902752E-21 -4.004778E-01  0.000000E+00
  5.360860E-01  6.411057E-02  5.000000E-01  5.414998E-01  6.474513E-02  0.000000E+00  1.097708E-02 -1.031461E-03 -2.785307E-19 -4.237929E-01  0.000000E+00
  5.150640E-01  6.613142E-02  5.000000E-01  5.202655E-01  6.678639E-02  0.000000E+00  1.112721E-02 -1.074146E-03 -1.035385E-19 -4.562527E-01  0.000000E+00
  4.939370E-01  6.817868E-02  5.000000E-01  4.989251E-01  6.885433E-02  0.000000E+00  1.151659E-02 -1.099773E-03 -5.802253E-19 -4.955655E-01  0.000000E+00
  4.727610E-01  7.017079E-02  5.000000E-01  4.775353E-01  7.086655E-02  0.000000E+00  1.211258E-02 -1.099364E-03 -3.096865E-19 -5.387817E-01  0.000000E+00
  5.770140E-06 -9.966399E-05  5.000000E-01  5.829535E-06 -1.135383E-04  0.000000E+00  1.541480E-03 -7.895920E-03 -5.496953E-13  9.376681E-01  0.000000E+00
  9.104010E-05 -4.341874E-04  5.000000E-01  9.196061E-05 -4.514400E-04  0.000000E+00  1.393673E-02 -2.302399E-02 -4.709949E-13  9.819846E-01  0.000000E+00
  4.796980E-04 -9.610288E-04  5.000000E-01  4.845435E-04 -9.836018E-04  0.000000E+00  3.075377E-02 -2.809083E-02 -3.135071E-13  7.425055E-01  0.000000E+00
  1.456590E-03 -1.590777E-03  5.000000E-01  1.471301E-03 -1.619709E-03  0.000000E+00  3.656139E-02 -1.920800E-02 -1.519659E-13  4.383537E-01  0.000000E+00
  3.096410E-03 -2.228928E-03  5.000000E-01  3.127681E-03 -2.264305E-03  0.000000E+00  3.233249E-02 -1.099885E-02 -4.676194E-14  3.008005E-01  0.000000E+00
  5.335170E-03 -2.853224E-03  5.000000E-01  5.389049E-03 -2.894906E-03  0.000000E+00  2.724692E-02 -6.799235E-03 -1.751306E-15  2.536404E-01  0.000000E+00
  8.129670E-03 -3.457191E-03  5.000000E-01  8.211770E-03 -3.504972E-03  0.000000E+00  2.376958E-02 -4.618435E-03  8.108673E-15  2.109428E-01  0.000000E+00
  1.145600E-02 -4.022085E-03  5.000000E-01  1.157169E-02 -4.075571E-03  0.000000E+00  2.095080E-02 -3.056115E-03  5.652372E-15  1.597394E-01  0.000000E+00
  1.529970E-02 -4.478677E-03  5.000000E-01  1.545421E-02 -4.536774E-03  0.000000E+00  1.779865E-02 -1.625635E-03  2.111080E-15  1.064694E-01  0.000000E+00
  1.962420E-02 -4.728560E-03  5.000000E-01  1.982238E-02 -4.789181E-03  0.000000E+00  1.436071E-02 -5.630047E-04  3.188502E-16  8.208303E-02  0.000000E+00
  2.439810E-02 -4.789811E-03  5.000000E-01  2.464449E-02 -4.851050E-03  0.000000E+00  1.192323E-02 -1.587695E-04 -1.521431E-16  1.208201E-01  0.000000E+00
  2.966100E-02 -4.859070E-03  5.000000E-01  2.996054E-02 -4.921008E-03  0.000000E+00  1.138827E-02 -2.023350E-04 -1.342000E-16  1.755280E-01  0.000000E+00
  3.543640E-02 -5.002026E-03  5.000000E-01  3.579426E-02 -5.065408E-03  0.000000E+00  1.204833E-02 -3.347219E-04 -5.047993E-17  1.842208E-01  0.000000E+00
  4.172970E-02 -5.197650E-03  5.000000E-01  4.215112E-02 -5.263007E-03  0.000000E+00  1.277462E-02 -3.938799E-04 -5.751690E-18  1.607028E-01  0.000000E+00
  4.854440E-02 -5.403574E-03  5.000000E-01  4.903464E-02 -5.471011E-03  0.000000E+00  1.309482E-02 -3.389625E-04  6.565230E-18  1.319655E-01  0.000000E+00
  5.588220E-02 -5.560239E-03  5.000000E-01  5.644654E-02 -5.629258E-03  0.000000E+00  1.305686E-02 -2.128652E-04  4.886782E-18  1.102247E-01  0.000000E+00
  6.375220E-02 -5.646375E-03  5.000000E-01  6.439602E-02 -5.716264E-03  0.000000E+00  1.288940E-02 -9.012416E-05  2.859057E-18  9.932091E-02  0.000000E+00
  7.217040E-02 -5.670772E-03  5.000000E-01  7.289923E-02 -5.740908E-03  0.000000E+00  1.278161E-02 -3.709521E-06  4.032519E-18  9.474719E-02  0.000000E+00
  8.115500E-02 -5.650565E-03  5.000000E-01  8.197456E-02 -5.720496E-03  0.000000E+00  1.278179E-02  6.049441E-05  3.133204E-18  8.948572E-02  0.000000E+00
  9.072040E-02 -5.582963E-03  5.000000E-01  9.163656E-02 -5.652211E-03  0.000000E+00  1.282952E-02  1.301798E-04  1.399512E-18  8.008844E-02  0.000000E+00
  1.008780E-01 -5.448854E-03  5.000000E-01  1.018967E-01 -5.516748E-03  0.000000E+00  1.285117E-02  2.174728E-04  1.531492E-19  6.886067E-02  0.000000E+00
  1.116380E-01 -5.226213E-03  5.000000E-01  1.127654E-01 -5.291859E-03  0.000000E+00  1.280310E-02  3.234750E-04 -2.075557E-18  5.868977E-02  0.000000E+00
  1.230100E-01 -4.886423E-03  5.000000E-01  1.242522E-01 -4.948638E-03  0.000000E+00  1.265288E-02  4.469940E-04 -5.409662E-19  5.069981E-02  0.000000E+00
  1.350030E-01 -4.396379E-03  5.000000E-01  1.363664E-01 -4.453645E-03  0.000000E+00  1.236699E-02  5.831856E-04  1.959124E-18  4.594580E-02  0.000000E+00
  1.350030E-01 -4.396379E-03  5.000000E-01  1.363664E-01 -4.453645E-03  0.000000E+00  1.236699E-02  5.831856E-04  1.959124E-18  4.594580E-02  0.000000E+00
  1.476220E-01 -3.719500E-03  5.000000E-01  1.491128E-01 -3.769930E-03  0.000000E+00  1.192226E-02  7.229195E-04  1.397253E-18  4.595403E-02  0.000000E+00
  1.608730E-01 -2.818848E-03  5.000000E-01  1.624976E-01 -2.860183E-03  0.000000E+00  1.132442E-02  8.533167E-04  1.145292E-18  5.244550E-02  0.000000E+00
  1.747560E-01 -1.663598E-03  5.000000E-01  1.765208E-01 -1.693266E-03  0.000000E+00  1.061855E-02  9.584594E-04 -5.591994E-20  6.653062E-02  0.000000E+00
  1.892730E-01 -2.436606E-04  5.000000E-01  1.911844E-01 -2.589891E-04  0.000000E+00  9.887115E-03  1.019156E-03 -8.465212E-19  8.835523E-02  0.000000E+00
  2.044180E-01  1.405875E-03  5.000000E-01  2.064824E-01  1.407205E-03  0.000000E+00  9.244366E-03  1.018630E-03  1.925628E-19  1.186053E-01  0.000000E+00
  2.201880E-01  3.167162E-03  5.000000E-01  2.224116E-01  3.186279E-03  0.000000E+00  8.777509E-03  9.680501E-04  1.321363E-18  1.520214E-01  0.000000E+00
  2.365750E-01  4.946234E-03  5.000000E-01  2.389641E-01  4.983317E-03  0.000000E+00  8.476855E-03  9.002255E-04  2.082301E-18  1.787323E-01  0.000000E+00
  2.535710E-01  6.706655E-03  5.000000E-01  2.561317E-01  6.761516E-03  0.000000E+00  8.276848E-03  8.321336E-04  1.536815E-18  1.972810E-01  0.000000E+00
  2.711570E-01  8.421109E-03  5.000000E-01  2.738953E-01  8.493283E-03  0.000000E+00  8.132103E-03  7.646503E-04 -6.141476E-20  2.117762E-01  0.000000E+00
  2.893100E-01  1.006548E-02  5.000000E-01  2.922317E-01  1.015426E-02  0.000000E+00  8.027318E-03  6.969316E-04 -1.049934E-18  2.242842E-01  0.000000E+00
  3.080020E-01  1.161714E-02  5.000000E-01  3.111124E-01  1.172159E-02  0.000000E+00  7.953359E-03  6.307017E-04 -1.069029E-18  2.344864E-01  0.000000E+00
  3.271950E-01  1.306643E-02  5.000000E-01  3.304992E-01  1.318551E-02  0.000000E+00  7.898991E-03  5.679315E-04 -3.491620E-19  2.420198E-01  0.000000E+00
  3.468470E-01  1.440809E-02  5.000000E-01  3.503497E-01  1.454073E-02  0.000000E+00  7.861787E-03  5.074205E-04  4.082001E-19  2.478951E-01  0.000000E+00
  3.669110E-01  1.562865E-02  5.000000E-01  3.706163E-01  1.577361E-02  0.000000E+00  7.852552E-03  4.474838E-04  5.276046E-19  2.527994E-01  0.000000E+00
  3.873360E-01  1.671398E-02  5.000000E-01  3.912476E-01  1.686991E-02  0.000000E+00  7.886190E-03  3.872934E-04  7.094445E-19  2.562909E-01  0.000000E+00
  4.080670E-01  1.764888E-02  5.000000E-01  4.121879E-01  1.781424E-02  0.000000E+00  7.973534E-03  3.244265E-04  1.349234E-18  2.580086E-01  0.000000E+00
  4.290470E-01  1.841205E-02  5.000000E-01  4.333798E-01  1.858512E-02  0.000000E+00  8.116260E-03  2.567683E-04  9.694217E-20  2.580475E-01  0.000000E+00
  4.502140E-01  1.898363E-02  5.000000E-01  4.547606E-01  1.916248E-02  0.000000E+00  8.292915E-03  1.914307E-04  9.203119E-19  2.553174E-01  0.000000E+00
  4.715070E-01  1.939129E-02  5.000000E-01  4.762686E-01  1.957425E-02  0.000000E+00  8.447819E-03  1.446096E-04  4.615863E-18  2.483333E-01  0.000000E+00
  4.928620E-01  1.971298E-02  5.000000E-01  4.978393E-01  1.989919E-02  0.000000E+00  8.512145E-03  1.267294E-04  5.298495E-18  2.392151E-01  0.000000E+00
  5.142140E-01  2.002859E-02  5.000000E-01  5.194069E-01  2.021798E-02  0.000000E+00  8.437536E-03  1.387263E-04  4.452323E-18  2.320736E-01  0.000000E+00
  5.355000E-01  2.041442E-02  5.000000E-01  5.409079E-01  2.060772E-02  0.000000E+00  8.206831E-03  1.765203E-04  2.069503E-18  2.285538E-01  0.000000E+00
  5.566560E-01  2.094258E-02  5.000000E-01  5.622775E-01  2.114121E-02  0.000000E+00  7.845774E-03  2.202510E-04  2.231028E-18  2.305255E-01  0.000000E+00
  4.727610E-01  7.017079E-02  5.000000E-01  4.775353E-01  7.086655E-02  0.000000E+00  1.211258E-02 -1.099364E-03 -3.096865E-19 -5.387817E-01  0.000000E+00
  4.515970E-01  7.202621E-02  5.000000E-01  4.561575E-01  7.274072E-02  0.000000E+00  1.284321E-02 -1.059833E-03  1.297618E-18 -5.800350E-01  0.000000E+00
  4.305020E-01  7.366695E-02  5.000000E-01  4.348495E-01  7.439803E-02  0.000000E+00  1.360411E-02 -9.773844E-04  9.275909E-19 -6.154831E-01  0.000000E+00
  4.095340E-01  7.505575E-02  5.000000E-01  4.136698E-01  7.580085E-02  0.000000E+00  1.430293E-02 -8.666337E-04 -9.675818E-19 -6.468103E-01  0.000000E+00
  3.887520E-01  7.620211E-02  5.000000E-01  3.926779E-01  7.695879E-02  0.000000E+00  1.490423E-02 -7.410686E-04 -6.132655E-19 -6.763459E-01  0.000000E+00
  3.682080E-01  7.711578E-02  5.000000E-01  3.719264E-01  7.788169E-02  0.000000E+00  1.542003E-02 -6.027417E-04  1.027904E-18 -7.046819E-01  0.000000E+00
  3.479570E-01  7.780158E-02  5.000000E-01  3.514709E-01  7.857441E-02  0.000000E+00  1.587960E-02 -4.510462E-04  1.944671E-18 -7.323933E-01  0.000000E+00
  3.280470E-01  7.826123E-02  5.000000E-01  3.313599E-01  7.903870E-02  0.000000E+00  1.631426E-02 -2.865846E-04  1.920804E-18 -7.602641E-01  0.000000E+00
  3.085240E-01  7.849904E-02  5.000000E-01  3.116397E-01  7.927891E-02  0.000000E+00  1.675132E-02 -1.094462E-04  1.517169E-18 -7.891026E-01  0.000000E+00
  2.894320E-01  7.851906E-02  5.000000E-01  2.923549E-01  7.929913E-02  0.000000E+00  1.721262E-02  8.445673E-05  9.709274E-19 -8.195748E-01  0.000000E+00
  2.708110E-01  7.832019E-02  5.000000E-01  2.735458E-01  7.909825E-02  0.000000E+00  1.771920E-02  3.022745E-04 -4.633901E-19 -8.536545E-01  0.000000E+00
  2.526960E-01  7.789752E-02  5.000000E-01  2.552479E-01  7.867132E-02  0.000000E+00  1.830869E-02  5.541495E-04 -2.371304E-18 -8.950456E-01  0.000000E+00
  2.351200E-01  7.724559E-02  5.000000E-01  2.374944E-01  7.801280E-02  0.000000E+00  1.903778E-02  8.690392E-04 -3.041089E-18 -9.429534E-01  0.000000E+00
  2.181120E-01  7.633066E-02  5.000000E-01  2.203147E-01  7.708863E-02  0.000000E+00  1.992445E-02  1.292868E-03 -2.731630E-18 -9.889190E-01  0.000000E+00
  2.017010E-01  7.509360E-02  5.000000E-01  2.037379E-01  7.583908E-02  0.000000E+00  2.090118E-02  1.837492E-03 -2.205344E-18 -1.028357E+00  0.000000E+00
  1.859190E-01  7.351656E-02  5.000000E-01  1.877965E-01  7.424612E-02  0.000000E+00  2.188365E-02  2.484070E-03 -2.689490E-19 -1.062792E+00  0.000000E+00
  1.707920E-01  7.160208E-02  5.000000E-01  1.725168E-01  7.231230E-02  0.000000E+00  2.283224E-02  3.235949E-03  2.271169E-18 -1.089955E+00  0.000000E+00
  1.563470E-01  6.934472E-02  5.000000E-01  1.579259E-01  7.003215E-02  0.000000E+00  2.371356E-02  4.107360E-03  5.111495E-19 -1.104081E+00  0.000000E+00
  1.426070E-01  6.674089E-02  5.000000E-01  1.440471E-01  6.740202E-02  0.000000E+00  2.446781E-02  5.087518E-03 -2.125517E-18 -1.100306E+00  0.000000E+00
  1.295900E-01  6.380169E-02  5.000000E-01  1.308987E-01  6.443313E-02  0.000000E+00  2.502240E-02  6.134334E-03 -4.227891E-18 -1.076271E+00  0.000000E+00
  1.173060E-01  6.055721E-02  5.000000E-01  1.184906E-01  6.115589E-02  0.000000E+00  2.531949E-02  7.191808E-03 -4.426305E-18 -1.031644E+00  0.000000E+00
  1.057600E-01  5.704988E-02  5.000000E-01  1.068280E-01  5.761314E-02  0.000000E+00  2.533201E-02  8.205653E-03 -7.913649E-19 -9.675850E-01  0.000000E+00
  9.495290E-02  5.333081E-02  5.000000E-01  9.591180E-02  5.385652E-02  0.000000E+00  2.506910E-02  9.127719E-03  2.201297E-18 -8.871468E-01  0.000000E+00
  8.487680E-02  4.945804E-02  5.000000E-01  8.573395E-02  4.994463E-02  0.000000E+00  2.457196E-02  9.926067E-03  6.441072E-18 -7.933430E-01  0.000000E+00
  8.487680E-02  4.945804E-02  5.000000E-01  8.573395E-02  4.994463E-02  0.000000E+00  2.457196E-02  9.926067E-03  6.441072E-18 -7.933430E-01  0.000000E+00
  7.552090E-02  4.549164E-02  5.000000E-01  7.628356E-02  4.593818E-02  0.000000E+00  2.388275E-02  1.058068E-02  1.224567E-17 -6.872663E-01  0.000000E+00
  6.687020E-02  4.149002E-02  5.000000E-01  6.754550E-02  4.189615E-02  0.000000E+00  2.302208E-02  1.105348E-02  1.476056E-17 -5.717938E-01  0.000000E+00
  5.889940E-02  3.751818E-02  5.000000E-01  5.949421E-02  3.788420E-02  0.000000E+00  2.202505E-02  1.130317E-02  1.308670E-17 -4.544838E-01  0.000000E+00
  5.157140E-02  3.364307E-02  5.000000E-01  5.209221E-02  3.396996E-02  0.000000E+00  2.098745E-02  1.135264E-02  1.101202E-17 -3.440552E-01  0.000000E+00
  4.484650E-02  2.991975E-02  5.000000E-01  4.529939E-02  3.020903E-02  0.000000E+00  2.005473E-02  1.132127E-02  9.100808E-18 -2.450344E-01  0.000000E+00
  3.869820E-02  2.637938E-02  5.000000E-01  3.908900E-02  2.663291E-02  0.000000E+00  1.936575E-02  1.137512E-02  1.095946E-18 -1.565060E-01  0.000000E+00
  3.311550E-02  2.303329E-02  5.000000E-01  3.344992E-02  2.325303E-02  0.000000E+00  1.898399E-02  1.163245E-02 -1.978024E-17 -7.316211E-02  0.000000E+00
  2.809130E-02  1.988818E-02  5.000000E-01  2.837499E-02  2.007616E-02  0.000000E+00  1.875812E-02  1.205335E-02 -5.349141E-17  2.080311E-02  0.000000E+00
  2.362330E-02  1.694702E-02  5.000000E-01  2.386187E-02  1.710529E-02  0.000000E+00  1.827566E-02  1.227362E-02 -1.084349E-16  1.358053E-01  0.000000E+00
  1.966610E-02  1.423496E-02  5.000000E-01  1.986470E-02  1.436584E-02  0.000000E+00  1.730244E-02  1.179800E-02 -1.696451E-16  2.450822E-01  0.000000E+00
  1.609460E-02  1.180989E-02  5.000000E-01  1.625714E-02  1.191629E-02  0.000000E+00  1.616182E-02  1.072832E-02 -7.838077E-17  3.204023E-01  0.000000E+00
  1.282740E-02  9.692679E-03  5.000000E-01  1.295694E-02  9.777695E-03  0.000000E+00  1.545980E-02  9.785658E-03  6.277623E-16  3.641447E-01  0.000000E+00
  9.860990E-03  7.861304E-03  5.000000E-01  9.960574E-03  7.927825E-03  0.000000E+00  1.564667E-02  9.620270E-03  2.659795E-15  3.945197E-01  0.000000E+00
  7.251350E-03  6.264670E-03  5.000000E-01  7.324580E-03  6.315067E-03  0.000000E+00  1.685305E-02  1.049556E-02  5.917808E-15  4.263180E-01  0.000000E+00
  5.038810E-03  4.865394E-03  5.000000E-01  5.089697E-03  4.901660E-03  0.000000E+00  1.903899E-02  1.251855E-02  6.548126E-15  4.619646E-01  0.000000E+00
  3.239710E-03  3.643793E-03  5.000000E-01  3.272428E-03  3.667722E-03  0.000000E+00  2.198327E-02  1.596484E-02 -7.344760E-15  5.078123E-01  0.000000E+00
  1.861880E-03  2.588434E-03  5.000000E-01  1.880684E-03  2.601706E-03  0.000000E+00  2.460008E-02  2.096731E-02 -5.697241E-14  5.813970E-01  0.000000E+00
  9.013910E-04  1.696674E-03  5.000000E-01  9.104950E-04  1.700940E-03  0.000000E+00  2.390027E-02  2.595225E-02 -1.627073E-13  7.089676E-01  0.000000E+00
  3.295630E-04  9.763986E-04  5.000000E-01  3.328923E-04  9.733911E-04  0.000000E+00  1.647262E-02  2.491542E-02 -3.192674E-13  8.845324E-01  0.000000E+00
  7.194000E-05  4.447949E-04  5.000000E-01  7.266763E-05  4.364189E-04  0.000000E+00  5.544644E-03  1.073900E-02 -4.740266E-13  9.960053E-01  0.000000E+00
  4.516100E-06  1.210397E-04  5.000000E-01  4.562831E-06  1.093942E-04  0.000000E+00 -5.198074E-04 -7.329901E-03 -5.535367E-13  9.386772E-01  0.000000E+00
 -1.112850E-09  1.273921E-05  5.000000E-01  0.000000E+00  0.000000E+00  0.000000E+00 -1.217065E-03 -7.858858E-03 -5.640797E-13  8.565473E-01  0.000000E+00