 Title = "ADflow Slice Data"
Variables =  "CoordinateX"  "CoordinateY"  "CoordinateZ"  "XoC"  "YoC"  "ZoC" "VelocityX" "VelocityY" "VelocityZ" "CoefPressure" "Mach" 
Zone T= "Slice_0001 None Absolute Regular z = 0.50000000"
 Nodes =          192  Elements=          184  ZONETYPE=FELINESEG
 DATAPACKING=POINT
  5.566560E-01  1.491776E-02  5.000000E-01  5.622773E-01  1.510794E-02  0.000000E+00  8.744484E-03  2.916168E-04 -3.297713E-19  1.679174E-01  0.000000E+00
  5.776220E-01  1.577515E-02  5.000000E-01  5.834551E-01  1.597399E-02  0.000000E+00  8.206543E-03  3.675214E-04 -3.333076E-19  1.801379E-01  0.000000E+00
  5.983370E-01  1.679295E-02  5.000000E-01  6.043793E-01  1.700206E-02  0.000000E+00  7.712393E-03  3.872031E-04 -3.119704E-19  2.022226E-01  0.000000E+00
  6.187480E-01  1.783735E-02  5.000000E-01  6.249964E-01  1.805701E-02  0.000000E+00  7.349182E-03  3.638929E-04 -9.935092E-19  2.245970E-01  0.000000E+00
  6.388030E-01  1.879303E-02  5.000000E-01  6.452539E-01  1.902234E-02  0.000000E+00  7.140883E-03  3.102859E-04 -7.885129E-19  2.429419E-01  0.000000E+00
  6.584530E-01  1.956449E-02  5.000000E-01  6.651023E-01  1.980159E-02  0.000000E+00  7.072435E-03  2.379908E-04  2.516361E-19  2.571163E-01  0.000000E+00
  6.776550E-01  2.010099E-02  5.000000E-01  6.844982E-01  2.034351E-02  0.000000E+00  7.081733E-03  1.723062E-04  9.340059E-19  2.644026E-01  0.000000E+00
  6.963720E-01  2.048478E-02  5.000000E-01  7.034043E-01  2.073118E-02  0.000000E+00  7.066977E-03  1.359128E-04  7.954369E-19  2.647071E-01  0.000000E+00
  7.145680E-01  2.081258E-02  5.000000E-01  7.217840E-01  2.106229E-02  0.000000E+00  6.946314E-03  1.279446E-04 -2.639089E-19  2.645035E-01  0.000000E+00
  7.322140E-01  2.114744E-02  5.000000E-01  7.396082E-01  2.140053E-02  0.000000E+00  6.692228E-03  1.362901E-04 -1.031577E-18  2.684965E-01  0.000000E+00
  7.492860E-01  2.152161E-02  5.000000E-01  7.568526E-01  2.177848E-02  0.000000E+00  6.320468E-03  1.499145E-04 -1.116550E-18  2.776032E-01  0.000000E+00
  7.657630E-01  2.194373E-02  5.000000E-01  7.734960E-01  2.220486E-02  0.000000E+00  5.870380E-03  1.608812E-04 -9.752527E-19  2.903806E-01  0.000000E+00
  7.816300E-01  2.240715E-02  5.000000E-01  7.895232E-01  2.267296E-02  0.000000E+00  5.402496E-03  1.554899E-04 -1.685840E-19  3.060809E-01  0.000000E+00
  7.968740E-01  2.284417E-02  5.000000E-01  8.049212E-01  2.311439E-02  0.000000E+00  5.016512E-03  1.138405E-04  3.563732E-20  3.271176E-01  0.000000E+00
  8.114890E-01  2.308618E-02  5.000000E-01  8.196838E-01  2.335885E-02  0.000000E+00  4.809371E-03  3.439084E-05 -3.140509E-19  3.492147E-01  0.000000E+00
  8.254710E-01  2.304554E-02  5.000000E-01  8.338070E-01  2.331780E-02  0.000000E+00  4.795871E-03 -6.713071E-05 -3.969476E-19  3.637734E-01  0.000000E+00
  8.388180E-01  2.270995E-02  5.000000E-01  8.472887E-01  2.297882E-02  0.000000E+00  4.924065E-03 -1.798011E-04  3.174242E-20  3.699509E-01  0.000000E+00
  8.515320E-01  2.210707E-02  5.000000E-01  8.601311E-01  2.236985E-02  0.000000E+00  5.141648E-03 -2.991249E-04  7.500678E-19  3.707750E-01  0.000000E+00
  8.636180E-01  2.128087E-02  5.000000E-01  8.723392E-01  2.153530E-02  0.000000E+00  5.417595E-03 -4.233352E-04  1.904049E-19  3.682021E-01  0.000000E+00
  8.750810E-01  2.027903E-02  5.000000E-01  8.839179E-01  2.052335E-02  0.000000E+00  5.732098E-03 -5.510756E-04  4.172474E-19  3.628879E-01  0.000000E+00
  8.859290E-01  1.914643E-02  5.000000E-01  8.948755E-01  1.937931E-02  0.000000E+00  6.069569E-03 -6.808068E-04  1.282893E-18  3.553088E-01  0.000000E+00
  8.961710E-01  1.792248E-02  5.000000E-01  9.052209E-01  1.814301E-02  0.000000E+00  6.419112E-03 -8.110422E-04  4.774685E-19  3.460073E-01  0.000000E+00
  9.058170E-01  1.664119E-02  5.000000E-01  9.149643E-01  1.684878E-02  0.000000E+00  6.774522E-03 -9.407021E-04  3.954207E-19  3.353755E-01  0.000000E+00
  9.148770E-01  1.533124E-02  5.000000E-01  9.241158E-01  1.552559E-02  0.000000E+00  7.132399E-03 -1.068948E-03  2.723924E-19  3.236634E-01  0.000000E+00
  9.148770E-01  1.533124E-02  5.000000E-01  9.241158E-01  1.552559E-02  0.000000E+00  7.132399E-03 -1.068948E-03  2.723924E-19  3.236634E-01  0.000000E+00
  9.233640E-01  1.401655E-02  5.000000E-01  9.326885E-01  1.419763E-02  0.000000E+00  7.491100E-03 -1.195291E-03 -1.326488E-18  3.111112E-01  0.000000E+00
  9.312880E-01  1.271697E-02  5.000000E-01  9.406925E-01  1.288492E-02  0.000000E+00  7.850424E-03 -1.319586E-03 -2.085029E-18  2.979212E-01  0.000000E+00
  9.386620E-01  1.144863E-02  5.000000E-01  9.481410E-01  1.160378E-02  0.000000E+00  8.210914E-03 -1.441859E-03 -1.655404E-18  2.842256E-01  0.000000E+00
  9.454960E-01  1.022495E-02  5.000000E-01  9.550440E-01  1.036774E-02  0.000000E+00  8.573276E-03 -1.562136E-03 -7.818145E-19  2.701234E-01  0.000000E+00
  9.518040E-01  9.056476E-03  5.000000E-01  9.614157E-01  9.187465E-03  0.000000E+00  8.938806E-03 -1.680686E-03 -4.187374E-19  2.557280E-01  0.000000E+00
  9.575950E-01  7.952130E-03  5.000000E-01  9.672652E-01  8.071967E-03  0.000000E+00  9.310124E-03 -1.798082E-03 -1.551662E-18  2.411160E-01  0.000000E+00
  9.628810E-01  6.918839E-03  5.000000E-01  9.726046E-01  7.028241E-03  0.000000E+00  9.692130E-03 -1.915327E-03 -1.798119E-18  2.263421E-01  0.000000E+00
  9.676710E-01  5.962366E-03  5.000000E-01  9.774430E-01  6.062109E-03  0.000000E+00  1.009374E-02 -2.034306E-03 -1.308421E-18  2.114960E-01  0.000000E+00
  9.719750E-01  5.087205E-03  5.000000E-01  9.817904E-01  5.178111E-03  0.000000E+00  1.052726E-02 -2.157556E-03 -1.636225E-18  1.966591E-01  0.000000E+00
  9.758020E-01  4.296911E-03  5.000000E-01  9.856561E-01  4.379836E-03  0.000000E+00  1.099960E-02 -2.286679E-03 -3.519112E-18  1.818839E-01  0.000000E+00
  9.791590E-01  3.594453E-03  5.000000E-01  9.890470E-01  3.670284E-03  0.000000E+00  1.148981E-02 -2.417682E-03 -5.371016E-18  1.671415E-01  0.000000E+00
  9.820540E-01  2.981970E-03  5.000000E-01  9.919712E-01  3.051616E-03  0.000000E+00  1.192742E-02 -2.536256E-03  5.568623E-19  1.530511E-01  0.000000E+00
  9.844930E-01  2.461240E-03  5.000000E-01  9.944348E-01  2.525628E-03  0.000000E+00  1.216581E-02 -2.606257E-03  2.143996E-17  1.405270E-01  0.000000E+00
  9.864820E-01  2.033508E-03  5.000000E-01  9.964439E-01  2.093576E-03  0.000000E+00  1.183027E-02 -2.539733E-03  4.209144E-17  1.254177E-01  0.000000E+00
  9.880240E-01  1.699946E-03  5.000000E-01  9.980015E-01  1.756646E-03  0.000000E+00  1.042198E-02 -2.274426E-03 -3.732761E-17  1.045921E-01  0.000000E+00
  9.891220E-01  1.461295E-03  5.000000E-01  9.991106E-01  1.515584E-03  0.000000E+00  9.855017E-03 -2.243580E-03 -4.700781E-16  1.216046E-01  0.000000E+00
  9.897810E-01  1.317790E-03  5.000000E-01  9.997762E-01  1.370630E-03  0.000000E+00  1.669705E-02 -2.386693E-03 -1.434290E-15  2.007897E-01  0.000000E+00
  9.900000E-01  1.269985E-03  5.000000E-01  9.999974E-01  1.322343E-03  0.000000E+00  1.334061E-02 -3.800007E-03 -1.883091E-15 -5.729804E-02  0.000000E+00
  9.900000E-01  1.456206E-03  5.000000E-01  9.999974E-01  1.510444E-03  0.000000E+00  1.199991E-03 -1.544929E-02 -1.184214E-15 -1.979559E-01  0.000000E+00
  9.900000E-01  1.642416E-03  5.000000E-01  9.999974E-01  1.698535E-03  0.000000E+00 -7.372764E-04 -1.635078E-02 -2.700087E-16 -1.887915E-02  0.000000E+00
  9.900000E-01  1.828636E-03  5.000000E-01  9.999974E-01  1.886636E-03  0.000000E+00 -3.789093E-04  1.282597E-04  4.698733E-16 -3.202414E-02  0.000000E+00
  9.900000E-01  2.014857E-03  5.000000E-01  9.999974E-01  2.074736E-03  0.000000E+00  6.588589E-04  1.090136E-03  1.451481E-15 -1.325527E-01  0.000000E+00
  9.900000E-01  2.201077E-03  5.000000E-01  9.999974E-01  2.262837E-03  0.000000E+00  6.480656E-03 -5.000874E-03  2.108861E-15 -5.123352E-02  0.000000E+00
  9.900000E-01  2.201077E-03  5.000000E-01  9.999974E-01  2.262837E-03  0.000000E+00  6.480656E-03 -5.000874E-03  2.108861E-15 -5.123352E-02  0.000000E+00
  9.897920E-01  2.265570E-03  5.000000E-01  9.997873E-01  2.327982E-03  0.000000E+00  6.831710E-03 -2.768883E-03  1.491356E-15  6.015819E-02  0.000000E+00
  9.891660E-01  2.459080E-03  5.000000E-01  9.991550E-01  2.523446E-03  0.000000E+00  1.839405E-03 -4.919186E-04  4.915704E-16 -9.211092E-04  0.000000E+00
  9.881230E-01  2.780999E-03  5.000000E-01  9.981015E-01  2.848616E-03  0.000000E+00  1.405094E-03 -4.313779E-04  4.667858E-17 -1.201356E-02  0.000000E+00
  9.866580E-01  3.231000E-03  5.000000E-01  9.966217E-01  3.303161E-03  0.000000E+00  1.698623E-03 -5.272259E-04 -4.783098E-17 -9.234519E-03  0.000000E+00
  9.847700E-01  3.807954E-03  5.000000E-01  9.947146E-01  3.885941E-03  0.000000E+00  1.778813E-03 -5.414250E-04 -3.364240E-17 -1.409815E-02  0.000000E+00
  9.824550E-01  4.510670E-03  5.000000E-01  9.923762E-01  4.595753E-03  0.000000E+00  1.858537E-03 -5.609296E-04 -1.249694E-17 -2.272970E-02  0.000000E+00
  9.797070E-01  5.337701E-03  5.000000E-01  9.896005E-01  5.431136E-03  0.000000E+00  2.020660E-03 -6.049768E-04 -2.259438E-18 -3.289903E-02  0.000000E+00
  9.765220E-01  6.286949E-03  5.000000E-01  9.863833E-01  6.389970E-03  0.000000E+00  2.258268E-03 -6.688954E-04  5.032134E-19 -4.497733E-02  0.000000E+00
  9.728930E-01  7.356080E-03  5.000000E-01  9.827177E-01  7.469897E-03  0.000000E+00  2.562671E-03 -7.495505E-04 -1.052729E-19 -5.914254E-02  0.000000E+00
  9.688130E-01  8.542144E-03  5.000000E-01  9.785965E-01  8.667939E-03  0.000000E+00  2.927582E-03 -8.440658E-04 -9.069387E-19 -7.534304E-02  0.000000E+00
  9.642740E-01  9.841636E-03  5.000000E-01  9.740116E-01  9.980554E-03  0.000000E+00  3.347121E-03 -9.493735E-04 -2.429845E-19 -9.352818E-02  0.000000E+00
  9.592670E-01  1.125036E-02  5.000000E-01  9.689541E-01  1.140351E-02  0.000000E+00  3.816993E-03 -1.062842E-03  1.426531E-18 -1.136759E-01  0.000000E+00
  9.537850E-01  1.276310E-02  5.000000E-01  9.634167E-01  1.293152E-02  0.000000E+00  4.333933E-03 -1.181888E-03  1.394001E-18 -1.356444E-01  0.000000E+00
  9.478160E-01  1.437398E-02  5.000000E-01  9.573874E-01  1.455867E-02  0.000000E+00  4.894724E-03 -1.303789E-03  1.116005E-18 -1.593332E-01  0.000000E+00
  9.413520E-01  1.607578E-02  5.000000E-01  9.508582E-01  1.627765E-02  0.000000E+00  5.496596E-03 -1.425777E-03  1.790427E-18 -1.845930E-01  0.000000E+00
  9.343800E-01  1.786025E-02  5.000000E-01  9.438158E-01  1.808015E-02  0.000000E+00  6.136599E-03 -1.544851E-03  8.244958E-19 -2.112122E-01  0.000000E+00
  9.268920E-01  1.971709E-02  5.000000E-01  9.362521E-01  1.995574E-02  0.000000E+00  6.811747E-03 -1.657727E-03 -4.638640E-20 -2.389837E-01  0.000000E+00
  9.188750E-01  2.163481E-02  5.000000E-01  9.281542E-01  2.189282E-02  0.000000E+00  7.518955E-03 -1.760819E-03  3.268860E-19 -2.675893E-01  0.000000E+00
  9.103190E-01  2.359947E-02  5.000000E-01  9.195118E-01  2.387732E-02  0.000000E+00  8.254536E-03 -1.850152E-03  9.397837E-19 -2.966918E-01  0.000000E+00
  9.012130E-01  2.559485E-02  5.000000E-01  9.103138E-01  2.589285E-02  0.000000E+00  9.014042E-03 -1.921145E-03  8.376675E-19 -3.258269E-01  0.000000E+00
  8.915460E-01  2.760185E-02  5.000000E-01  9.005492E-01  2.792012E-02  0.000000E+00  9.791084E-03 -1.968655E-03 -5.631920E-20 -3.544281E-01  0.000000E+00
  8.813080E-01  2.959842E-02  5.000000E-01  8.902078E-01  2.993685E-02  0.000000E+00  1.057568E-02 -1.986780E-03 -8.661281E-19 -3.816858E-01  0.000000E+00
  8.704900E-01  3.155889E-02  5.000000E-01  8.792806E-01  3.191711E-02  0.000000E+00  1.135145E-02 -1.968909E-03 -2.383954E-19 -4.065093E-01  0.000000E+00
  8.704900E-01  3.155889E-02  5.000000E-01  8.792806E-01  3.191711E-02  0.000000E+00  1.135145E-02 -1.968909E-03 -2.383954E-19 -4.065093E-01  0.000000E+00
  8.590830E-01  3.345448E-02  5.000000E-01  8.677584E-01  3.383185E-02  0.000000E+00  1.209459E-02 -1.908977E-03  1.035104E-18 -4.277617E-01  0.000000E+00
  8.470810E-01  3.525422E-02  5.000000E-01  8.556352E-01  3.564976E-02  0.000000E+00  1.277457E-02 -1.802735E-03  1.460933E-18 -4.440138E-01  0.000000E+00
  8.344780E-01  3.692656E-02  5.000000E-01  8.429049E-01  3.733899E-02  0.000000E+00  1.334977E-02 -1.649648E-03  2.173867E-18 -4.528077E-01  0.000000E+00
  8.212700E-01  3.844332E-02  5.000000E-01  8.295635E-01  3.887107E-02  0.000000E+00  1.375917E-02 -1.457199E-03  2.372287E-18 -4.506801E-01  0.000000E+00
  8.074550E-01  3.978804E-02  5.000000E-01  8.156090E-01  4.022937E-02  0.000000E+00  1.393055E-02 -1.248264E-03  1.753430E-18 -4.360134E-01  0.000000E+00
  7.930350E-01  4.097055E-02  5.000000E-01  8.010434E-01  4.142382E-02  0.000000E+00  1.382995E-02 -1.064468E-03  2.153193E-18 -4.142225E-01  0.000000E+00
  7.780130E-01  4.204711E-02  5.000000E-01  7.858697E-01  4.251126E-02  0.000000E+00  1.352236E-02 -9.409817E-04  1.820680E-18 -3.953498E-01  0.000000E+00
  7.623950E-01  4.309875E-02  5.000000E-01  7.700940E-01  4.357351E-02  0.000000E+00  1.314225E-02 -8.615819E-04  2.348668E-19 -3.806946E-01  0.000000E+00
  7.461930E-01  4.413255E-02  5.000000E-01  7.537284E-01  4.461775E-02  0.000000E+00  1.277849E-02 -7.924485E-04 -3.574268E-19 -3.663836E-01  0.000000E+00
  7.294180E-01  4.514183E-02  5.000000E-01  7.367840E-01  4.563722E-02  0.000000E+00  1.244400E-02 -7.285265E-04 -1.422120E-18 -3.520831E-01  0.000000E+00
  7.120900E-01  4.612761E-02  5.000000E-01  7.192810E-01  4.663295E-02  0.000000E+00  1.211958E-02 -6.749805E-04 -1.820608E-18 -3.371344E-01  0.000000E+00
  6.942280E-01  4.710125E-02  5.000000E-01  7.012386E-01  4.761643E-02  0.000000E+00  1.177437E-02 -6.376482E-04 -1.072332E-18 -3.212567E-01  0.000000E+00
  6.758590E-01  4.808972E-02  5.000000E-01  6.826841E-01  4.861489E-02  0.000000E+00  1.138825E-02 -6.227573E-04 -7.063768E-19 -3.060942E-01  0.000000E+00
  6.570120E-01  4.913679E-02  5.000000E-01  6.636468E-01  4.967252E-02  0.000000E+00  1.096988E-02 -6.331460E-04 -3.289049E-19 -2.942002E-01  0.000000E+00
  6.377220E-01  5.029300E-02  5.000000E-01  6.441620E-01  5.084041E-02  0.000000E+00  1.055212E-02 -6.640696E-04 -5.511224E-20 -2.868534E-01  0.000000E+00
  6.180260E-01  5.159396E-02  5.000000E-01  6.242671E-01  5.215451E-02  0.000000E+00  1.017245E-02 -7.087179E-04  8.843764E-20 -2.844792E-01  0.000000E+00
  5.979670E-01  5.306683E-02  5.000000E-01  6.040055E-01  5.364226E-02  0.000000E+00  9.863738E-03 -7.641532E-04 -9.784426E-19 -2.880147E-01  0.000000E+00
  5.775910E-01  5.473004E-02  5.000000E-01  5.834238E-01  5.532226E-02  0.000000E+00  9.658273E-03 -8.294172E-04 -1.695579E-18 -2.990481E-01  0.000000E+00
  5.569470E-01  5.659057E-02  5.000000E-01  5.625713E-01  5.720158E-02  0.000000E+00  9.592618E-03 -9.031095E-04 -1.109490E-18 -3.194722E-01  0.000000E+00
  5.360860E-01  5.863708E-02  5.000000E-01  5.414996E-01  5.926875E-02  0.000000E+00  9.702290E-03 -9.788184E-04 -9.912022E-19 -3.490269E-01  0.000000E+00
  5.150640E-01  6.081529E-02  5.000000E-01  5.202653E-01  6.146896E-02  0.000000E+00  1.000289E-02 -1.047063E-03 -1.132743E-18 -3.855635E-01  0.000000E+00
  4.939370E-01  6.304787E-02  5.000000E-01  4.989250E-01  6.372409E-02  0.000000E+00  1.048284E-02 -1.101077E-03 -1.336980E-18 -4.274904E-01  0.000000E+00
  4.727610E-01  6.525835E-02  5.000000E-01  4.775351E-01  6.595689E-02  0.000000E+00  1.111177E-02 -1.134112E-03 -4.866119E-19 -4.727394E-01  0.000000E+00
  5.770140E-06 -1.520700E-04  5.000000E-01  5.829533E-06 -1.140729E-04  0.000000E+00  7.347454E-04 -2.881064E-03 -5.376632E-13  9.449405E-01  0.000000E+00
  9.104010E-05 -4.917977E-04  5.000000E-01  9.196059E-05 -4.572313E-04  0.000000E+00  1.114741E-02 -1.816948E-02 -4.522337E-13  9.996380E-01  0.000000E+00
  4.796980E-04 -1.040867E-03  5.000000E-01  4.845433E-04 -1.011845E-03  0.000000E+00  2.642036E-02 -2.533881E-02 -2.977040E-13  7.972318E-01  0.000000E+00
  1.456590E-03 -1.726886E-03  5.000000E-01  1.471300E-03 -1.704792E-03  0.000000E+00  3.301936E-02 -1.915402E-02 -1.432023E-13  5.184711E-01  0.000000E+00
  3.096410E-03 -2.462029E-03  5.000000E-01  3.127680E-03 -2.447359E-03  0.000000E+00  3.059812E-02 -1.220854E-02 -4.332216E-14  3.754090E-01  0.000000E+00
  5.335170E-03 -3.222690E-03  5.000000E-01  5.389048E-03 -3.215701E-03  0.000000E+00  2.677432E-02 -8.321467E-03 -8.349538E-16  3.127286E-01  0.000000E+00
  8.129670E-03 -4.001125E-03  5.000000E-01  8.211768E-03 -4.001998E-03  0.000000E+00  2.399345E-02 -6.166157E-03  8.200227E-15  2.564356E-01  0.000000E+00
  1.145600E-02 -4.777009E-03  5.000000E-01  1.157169E-02 -4.785716E-03  0.000000E+00  2.163105E-02 -4.521348E-03  5.595216E-15  1.934423E-01  0.000000E+00
  1.529970E-02 -5.477518E-03  5.000000E-01  1.545420E-02 -5.493300E-03  0.000000E+00  1.882529E-02 -2.894968E-03  2.065510E-15  1.273748E-01  0.000000E+00
  1.962420E-02 -5.996377E-03  5.000000E-01  1.982237E-02 -6.017398E-03  0.000000E+00  1.558402E-02 -1.562389E-03  2.927987E-16  8.867685E-02  0.000000E+00
  2.439810E-02 -6.345747E-03  5.000000E-01  2.464448E-02 -6.370296E-03  0.000000E+00  1.319189E-02 -9.661453E-04 -1.675865E-16  1.153695E-01  0.000000E+00
  2.966100E-02 -6.727217E-03  5.000000E-01  2.996053E-02 -6.755618E-03  0.000000E+00  1.265182E-02 -9.707803E-04 -1.415004E-16  1.612424E-01  0.000000E+00
  3.543640E-02 -7.207603E-03  5.000000E-01  3.579425E-02 -7.240856E-03  0.000000E+00  1.333068E-02 -1.139719E-03 -4.910036E-17  1.609078E-01  0.000000E+00
  4.172970E-02 -7.762295E-03  5.000000E-01  4.215111E-02 -7.801149E-03  0.000000E+00  1.410429E-02 -1.224619E-03 -6.685939E-19  1.268265E-01  0.000000E+00
  4.854440E-02 -8.343119E-03  5.000000E-01  4.903462E-02 -8.387838E-03  0.000000E+00  1.447998E-02 -1.150423E-03  8.648444E-18  8.650262E-02  0.000000E+00
  5.588220E-02 -8.882449E-03  5.000000E-01  5.644652E-02 -8.932615E-03  0.000000E+00  1.449094E-02 -9.670008E-04  5.223064E-18  5.330157E-02  0.000000E+00
  6.375220E-02 -9.351873E-03  5.000000E-01  6.439600E-02 -9.406780E-03  0.000000E+00  1.436800E-02 -7.726554E-04  2.335700E-18  3.210211E-02  0.000000E+00
  7.217040E-02 -9.753821E-03  5.000000E-01  7.289921E-02 -9.812786E-03  0.000000E+00  1.431005E-02 -6.155959E-04  1.071321E-18  1.843889E-02  0.000000E+00
  8.115500E-02 -1.009846E-02  5.000000E-01  8.197454E-02 -1.016091E-02  0.000000E+00  1.436548E-02 -4.807461E-04  7.271663E-20  4.680821E-03  0.000000E+00
  9.072040E-02 -1.037341E-02  5.000000E-01  9.163653E-02 -1.043864E-02  0.000000E+00  1.445893E-02 -3.312165E-04 -5.049976E-19 -1.297840E-02  0.000000E+00
  1.008780E-01 -1.054728E-02  5.000000E-01  1.018967E-01 -1.061426E-02  0.000000E+00  1.449415E-02 -1.490309E-04 -2.633589E-19 -3.173939E-02  0.000000E+00
  1.116380E-01 -1.058378E-02  5.000000E-01  1.127654E-01 -1.065112E-02  0.000000E+00  1.440308E-02  6.722073E-05  3.430438E-19 -4.785107E-02  0.000000E+00
  1.230100E-01 -1.043786E-02  5.000000E-01  1.242522E-01 -1.050374E-02  0.000000E+00  1.412800E-02  3.123730E-04  1.739352E-18 -5.934434E-02  0.000000E+00
  1.350030E-01 -1.005839E-02  5.000000E-01  1.363663E-01 -1.012043E-02  0.000000E+00  1.361403E-02  5.723590E-04  1.698330E-18 -6.424359E-02  0.000000E+00
  1.350030E-01 -1.005839E-02  5.000000E-01  1.363663E-01 -1.012043E-02  0.000000E+00  1.361403E-02  5.723590E-04  1.698330E-18 -6.424359E-02  0.000000E+00
  1.476220E-01 -9.390153E-03  5.000000E-01  1.491128E-01 -9.445446E-03  0.000000E+00  1.283203E-02  8.234812E-04 -2.473428E-19 -6.002760E-02  0.000000E+00
  1.608730E-01 -8.379600E-03  5.000000E-01  1.624976E-01 -8.424688E-03  0.000000E+00  1.180930E-02  1.035813E-03 -9.068286E-19 -4.415594E-02  0.000000E+00
  1.747560E-01 -6.986287E-03  5.000000E-01  1.765208E-01 -7.017305E-03  0.000000E+00  1.064334E-02  1.179825E-03 -1.277030E-18 -1.539573E-02  0.000000E+00
  1.892730E-01 -5.206450E-03  5.000000E-01  1.911844E-01 -5.219495E-03  0.000000E+00  9.489991E-03  1.232508E-03 -2.485420E-18  2.566845E-02  0.000000E+00
  2.044180E-01 -3.111390E-03  5.000000E-01  2.064823E-01 -3.103278E-03  0.000000E+00  8.538420E-03  1.189117E-03 -3.020889E-18  7.843760E-02  0.000000E+00
  2.201880E-01 -8.961000E-04  5.000000E-01  2.224116E-01 -8.656164E-04  0.000000E+00  7.910065E-03  1.086315E-03 -2.415995E-18  1.329154E-01  0.000000E+00
  2.365750E-01  1.291400E-03  5.000000E-01  2.389640E-01  1.343974E-03  0.000000E+00  7.564863E-03  9.752506E-04 -1.470042E-18  1.738388E-01  0.000000E+00
  2.535710E-01  3.397200E-03  5.000000E-01  2.561317E-01  3.471039E-03  0.000000E+00  7.387260E-03  8.732466E-04 -1.701486E-18  2.005962E-01  0.000000E+00
  2.711570E-01  5.376800E-03  5.000000E-01  2.738953E-01  5.470630E-03  0.000000E+00  7.307919E-03  7.759379E-04 -6.731546E-19  2.205817E-01  0.000000E+00
  2.893100E-01  7.189800E-03  5.000000E-01  2.922316E-01  7.301938E-03  0.000000E+00  7.307665E-03  6.797275E-04 -3.019638E-19  2.367291E-01  0.000000E+00
  3.080020E-01  8.800700E-03  5.000000E-01  3.111123E-01  8.929106E-03  0.000000E+00  7.373872E-03  5.852362E-04 -7.961255E-19  2.483197E-01  0.000000E+00
  3.271950E-01  1.019360E-02  5.000000E-01  3.304992E-01  1.033607E-02  0.000000E+00  7.486937E-03  4.947218E-04  2.896666E-19  2.547747E-01  0.000000E+00
  3.468470E-01  1.136660E-02  5.000000E-01  3.503496E-01  1.152092E-02  0.000000E+00  7.633753E-03  4.086172E-04  6.239167E-19  2.572286E-01  0.000000E+00
  3.669110E-01  1.232010E-02  5.000000E-01  3.706162E-01  1.248405E-02  0.000000E+00  7.815747E-03  3.265362E-04  1.260174E-19  2.568113E-01  0.000000E+00
  3.873360E-01  1.305910E-02  5.000000E-01  3.912475E-01  1.323051E-02  0.000000E+00  8.041871E-03  2.480096E-04  5.850635E-19  2.536399E-01  0.000000E+00
  4.080670E-01  1.359080E-02  5.000000E-01  4.121878E-01  1.376758E-02  0.000000E+00  8.319293E-03  1.708953E-04  1.460926E-18  2.477071E-01  0.000000E+00
  4.290470E-01  1.391920E-02  5.000000E-01  4.333797E-01  1.409929E-02  0.000000E+00  8.645882E-03  9.395662E-05  1.046195E-18  2.393757E-01  0.000000E+00
  4.502140E-01  1.405212E-02  5.000000E-01  4.547605E-01  1.423356E-02  0.000000E+00  8.993447E-03  2.767065E-05  1.893732E-19  2.277285E-01  0.000000E+00
  4.715070E-01  1.404971E-02  5.000000E-01  4.762685E-01  1.423112E-02  0.000000E+00  9.294203E-03 -5.577475E-06 -1.122924E-18  2.114376E-01  0.000000E+00
  4.928620E-01  1.402550E-02  5.000000E-01  4.978391E-01  1.420667E-02  0.000000E+00  9.463416E-03  9.308800E-06 -6.910810E-19  1.932524E-01  0.000000E+00
  5.142140E-01  1.409280E-02  5.000000E-01  5.194068E-01  1.427464E-02  0.000000E+00  9.437710E-03  7.332982E-05  7.486281E-19  1.782746E-01  0.000000E+00
  5.355000E-01  1.435775E-02  5.000000E-01  5.409077E-01  1.454228E-02  0.000000E+00  9.189560E-03  1.777842E-04  4.734224E-19  1.689121E-01  0.000000E+00
  5.566560E-01  1.491776E-02  5.000000E-01  5.622773E-01  1.510794E-02  0.000000E+00  8.744484E-03  2.916168E-04 -3.297713E-19  1.679174E-01  0.000000E+00
  4.727610E-01  6.525835E-02  5.000000E-01  4.775351E-01  6.595689E-02  0.000000E+00  1.111177E-02 -1.134112E-03 -4.866119E-19 -4.727394E-01  0.000000E+00
  4.515970E-01  6.737272E-02  5.000000E-01  4.561574E-01  6.809261E-02  0.000000E+00  1.184152E-02 -1.136817E-03  5.014107E-19 -5.176947E-01  0.000000E+00
  4.305020E-01  6.932210E-02  5.000000E-01  4.348494E-01  7.006168E-02  0.000000E+00  1.260874E-02 -1.104710E-03 -2.903607E-20 -5.599939E-01  0.000000E+00
  4.095340E-01  7.106460E-02  5.000000E-01  4.136696E-01  7.182177E-02  0.000000E+00  1.335954E-02 -1.043253E-03 -5.863242E-19 -6.005917E-01  0.000000E+00
  3.887520E-01  7.258820E-02  5.000000E-01  3.926778E-01  7.336076E-02  0.000000E+00  1.407444E-02 -9.570982E-04 -2.946826E-21 -6.407881E-01  0.000000E+00
  3.682080E-01  7.388110E-02  5.000000E-01  3.719263E-01  7.466672E-02  0.000000E+00  1.476130E-02 -8.441810E-04  6.878534E-19 -6.806214E-01  0.000000E+00
  3.479570E-01  7.492790E-02  5.000000E-01  3.514708E-01  7.572409E-02  0.000000E+00  1.543538E-02 -7.008583E-04  3.200494E-19 -7.197487E-01  0.000000E+00
  3.280470E-01  7.571200E-02  5.000000E-01  3.313598E-01  7.651610E-02  0.000000E+00  1.610785E-02 -5.253368E-04 -1.022251E-19 -7.576935E-01  0.000000E+00
  3.085240E-01  7.622200E-02  5.000000E-01  3.116396E-01  7.703125E-02  0.000000E+00  1.678180E-02 -3.176915E-04  2.242074E-19 -7.940894E-01  0.000000E+00
  2.894320E-01  7.645200E-02  5.000000E-01  2.923548E-01  7.726358E-02  0.000000E+00  1.745494E-02 -7.716118E-05 -2.788907E-19 -8.290629E-01  0.000000E+00
  2.708110E-01  7.639800E-02  5.000000E-01  2.735458E-01  7.720903E-02  0.000000E+00  1.813054E-02  1.981662E-04 -1.475155E-18 -8.647406E-01  0.000000E+00
  2.526960E-01  7.605800E-02  5.000000E-01  2.552478E-01  7.686560E-02  0.000000E+00  1.883870E-02  5.134421E-04 -2.444180E-18 -9.049276E-01  0.000000E+00
  2.351200E-01  7.543300E-02  5.000000E-01  2.374943E-01  7.623429E-02  0.000000E+00  1.963155E-02  8.950191E-04 -3.862209E-18 -9.473969E-01  0.000000E+00
  2.181120E-01  7.449620E-02  5.000000E-01  2.203146E-01  7.528803E-02  0.000000E+00  2.050724E-02  1.384907E-03 -3.905179E-18 -9.808896E-01  0.000000E+00
  2.017010E-01  7.319489E-02  5.000000E-01  2.037379E-01  7.397357E-02  0.000000E+00  2.136178E-02  1.970024E-03 -1.922673E-18 -1.002245E+00  0.000000E+00
  1.859190E-01  7.154157E-02  5.000000E-01  1.877965E-01  7.230356E-02  0.000000E+00  2.210666E-02  2.597714E-03  8.403091E-19 -1.019247E+00  0.000000E+00
  1.707920E-01  6.957566E-02  5.000000E-01  1.725167E-01  7.031780E-02  0.000000E+00  2.276007E-02  3.271103E-03  2.025559E-19 -1.033494E+00  0.000000E+00
  1.563470E-01  6.730632E-02  5.000000E-01  1.579259E-01  6.802554E-02  0.000000E+00  2.336517E-02  4.031433E-03 -2.830709E-18 -1.039827E+00  0.000000E+00
  1.426070E-01  6.472928E-02  5.000000E-01  1.440471E-01  6.542248E-02  0.000000E+00  2.391599E-02  4.894820E-03 -3.413335E-18 -1.033081E+00  0.000000E+00
  1.295900E-01  6.184774E-02  5.000000E-01  1.308987E-01  6.251184E-02  0.000000E+00  2.436139E-02  5.839466E-03 -3.130538E-18 -1.009797E+00  0.000000E+00
  1.173060E-01  5.868214E-02  5.000000E-01  1.184906E-01  5.931427E-02  0.000000E+00  2.463514E-02  6.821338E-03 -3.810527E-18 -9.682044E-01  0.000000E+00
  1.057600E-01  5.526589E-02  5.000000E-01  1.068280E-01  5.586352E-02  0.000000E+00  2.468418E-02  7.789248E-03 -3.355394E-18 -9.081620E-01  0.000000E+00
  9.495290E-02  5.164297E-02  5.000000E-01  9.591178E-02  5.220402E-02  0.000000E+00  2.448856E-02  8.691008E-03  5.694123E-19 -8.318138E-01  0.000000E+00
  8.487680E-02  4.786659E-02  5.000000E-01  8.573392E-02  4.838950E-02  0.000000E+00  2.406654E-02  9.486885E-03  7.379950E-18 -7.416278E-01  0.000000E+00
  8.487680E-02  4.786659E-02  5.000000E-01  8.573392E-02  4.838950E-02  0.000000E+00  2.406654E-02  9.486885E-03  7.379950E-18 -7.416278E-01  0.000000E+00
  7.552090E-02  4.399396E-02  5.000000E-01  7.628354E-02  4.447777E-02  0.000000E+00  2.344539E-02  1.014826E-02  1.107332E-17 -6.383910E-01  0.000000E+00
  6.687020E-02  4.008218E-02  5.000000E-01  6.754548E-02  4.052648E-02  0.000000E+00  2.263749E-02  1.062879E-02  1.303574E-17 -5.249955E-01  0.000000E+00
  5.889940E-02  3.619684E-02  5.000000E-01  5.949419E-02  3.660190E-02  0.000000E+00  2.167586E-02  1.088068E-02  1.119425E-17 -4.093357E-01  0.000000E+00
  5.157140E-02  3.240684E-02  5.000000E-01  5.209219E-02  3.277364E-02  0.000000E+00  2.065978E-02  1.092406E-02  5.954773E-18 -3.005068E-01  0.000000E+00
  4.484650E-02  2.876918E-02  5.000000E-01  4.529938E-02  2.909924E-02  0.000000E+00  1.974041E-02  1.087903E-02  5.617135E-18 -2.032055E-01  0.000000E+00
  3.869820E-02  2.531560E-02  5.000000E-01  3.908899E-02  2.561078E-02  0.000000E+00  1.906116E-02  1.091296E-02  8.052748E-20 -1.165461E-01  0.000000E+00
  3.311550E-02  2.205668E-02  5.000000E-01  3.344992E-02  2.231895E-02  0.000000E+00  1.868741E-02  1.114388E-02 -1.808838E-17 -3.528707E-02  0.000000E+00
  2.809130E-02  1.899816E-02  5.000000E-01  2.837498E-02  1.922955E-02  0.000000E+00  1.846348E-02  1.153012E-02 -5.154963E-17  5.653474E-02  0.000000E+00
  2.362330E-02  1.614169E-02  5.000000E-01  2.386186E-02  1.634423E-02  0.000000E+00  1.796287E-02  1.170299E-02 -1.134719E-16  1.694334E-01  0.000000E+00
  1.966610E-02  1.351346E-02  5.000000E-01  1.986470E-02  1.368946E-02  0.000000E+00  1.693997E-02  1.116388E-02 -1.800105E-16  2.760273E-01  0.000000E+00
  1.609460E-02  1.117629E-02  5.000000E-01  1.625713E-02  1.132868E-02  0.000000E+00  1.572421E-02  1.002125E-02 -6.863973E-17  3.477499E-01  0.000000E+00
  1.282740E-02  9.152558E-03  5.000000E-01  1.295694E-02  9.284517E-03  0.000000E+00  1.494355E-02  9.004120E-03  7.198283E-16  3.871503E-01  0.000000E+00
  9.860990E-03  7.417212E-03  5.000000E-01  9.960572E-03  7.531647E-03  0.000000E+00  1.507835E-02  8.758876E-03  2.910860E-15  4.124848E-01  0.000000E+00
  7.251350E-03  5.913107E-03  5.000000E-01  7.324578E-03  6.012353E-03  0.000000E+00  1.629046E-02  9.545079E-03  6.284340E-15  4.384885E-01  0.000000E+00
  5.038810E-03  4.598127E-03  5.000000E-01  5.089695E-03  4.684093E-03  0.000000E+00  1.858263E-02  1.148844E-02  6.530252E-15  4.672757E-01  0.000000E+00
  3.239710E-03  3.449400E-03  5.000000E-01  3.272427E-03  3.523766E-03  0.000000E+00  2.180841E-02  1.493669E-02 -9.141572E-15  5.049474E-01  0.000000E+00
  1.861880E-03  2.452862E-03  5.000000E-01  1.880683E-03  2.517165E-03  0.000000E+00  2.495212E-02  2.020296E-02 -6.281513E-14  5.698010E-01  0.000000E+00
  9.013910E-04  1.603909E-03  5.000000E-01  9.104948E-04  1.659639E-03  0.000000E+00  2.492147E-02  2.600618E-02 -1.745284E-13  6.912718E-01  0.000000E+00
  3.295630E-04  9.098722E-04  5.000000E-01  3.328922E-04  9.585932E-04  0.000000E+00  1.789308E-02  2.649826E-02 -3.363873E-13  8.675283E-01  0.000000E+00
  7.194000E-05  3.900983E-04  5.000000E-01  7.266760E-05  4.335705E-04  0.000000E+00  6.753028E-03  1.425725E-02 -4.916893E-13  9.869387E-01  0.000000E+00
  4.516100E-06  6.914705E-05  5.000000E-01  4.562830E-06  1.093781E-04  0.000000E+00  8.927298E-05 -2.293526E-03 -5.651789E-13  9.413924E-01  0.000000E+00
 -1.112850E-09 -3.913754E-05  5.000000E-01  0.000000E+00  0.000000E+00  0.000000E+00 -1.162484E-03 -2.691131E-03 -5.646608E-13  8.665670E-01  0.000000E+00