 Title = "ADflow Slice Data"
Variables =  "CoordinateX"  "CoordinateY"  "CoordinateZ"  "XoC"  "YoC"  "ZoC" "VelocityX" "VelocityY" "VelocityZ" "CoefPressure" "Mach" 
Zone T= "Slice_0001 None Absolute Regular z = 0.50000000"
 Nodes =          192  Elements=          184  ZONETYPE=FELINESEG
 DATAPACKING=POINT
  5.566560E-01  2.528277E-02  5.000000E-01  5.622776E-01  2.549143E-02  0.000000E+00  7.007908E-03  1.333046E-04 -8.128835E-19  2.944919E-01  0.000000E+00
  5.776220E-01  2.554394E-02  5.000000E-01  5.834553E-01  2.575524E-02  0.000000E+00  7.076504E-03  4.266030E-05  1.988800E-18  2.982363E-01  0.000000E+00
  5.983370E-01  2.553649E-02  5.000000E-01  6.043795E-01  2.574771E-02  0.000000E+00  7.220050E-03 -4.681294E-05 -5.684240E-19  2.970087E-01  0.000000E+00
  6.187480E-01  2.528261E-02  5.000000E-01  6.249966E-01  2.549127E-02  0.000000E+00  7.419527E-03 -1.342293E-04  2.604628E-19  2.925137E-01  0.000000E+00
  6.388030E-01  2.481005E-02  5.000000E-01  6.452542E-01  2.501393E-02  0.000000E+00  7.659276E-03 -2.195132E-04  1.057148E-18  2.856721E-01  0.000000E+00
  6.584530E-01  2.415062E-02  5.000000E-01  6.651026E-01  2.434784E-02  0.000000E+00  7.918872E-03 -2.988573E-04 -2.411772E-19  2.769062E-01  0.000000E+00
  6.776550E-01  2.334740E-02  5.000000E-01  6.844985E-01  2.353651E-02  0.000000E+00  8.162805E-03 -3.594825E-04 -1.034453E-18  2.655849E-01  0.000000E+00
  6.963720E-01  2.248153E-02  5.000000E-01  7.034045E-01  2.266190E-02  0.000000E+00  8.344848E-03 -3.898470E-04 -1.892927E-18  2.524850E-01  0.000000E+00
  7.145680E-01  2.162389E-02  5.000000E-01  7.217843E-01  2.179560E-02  0.000000E+00  8.431641E-03 -3.912571E-04 -5.115558E-19  2.408212E-01  0.000000E+00
  7.322140E-01  2.081881E-02  5.000000E-01  7.396085E-01  2.098239E-02  0.000000E+00  8.414710E-03 -3.723873E-04  4.348484E-19  2.327817E-01  0.000000E+00
  7.492860E-01  2.008751E-02  5.000000E-01  7.568529E-01  2.024370E-02  0.000000E+00  8.305653E-03 -3.427073E-04 -1.435691E-19  2.288612E-01  0.000000E+00
  7.657630E-01  1.943402E-02  5.000000E-01  7.734963E-01  1.958361E-02  0.000000E+00  8.128554E-03 -3.103902E-04 -2.117526E-19  2.283976E-01  0.000000E+00
  7.816300E-01  1.885142E-02  5.000000E-01  7.895235E-01  1.899513E-02  0.000000E+00  7.919219E-03 -2.873960E-04  1.758233E-19  2.308332E-01  0.000000E+00
  7.968740E-01  1.830659E-02  5.000000E-01  8.049215E-01  1.844480E-02  0.000000E+00  7.734119E-03 -2.921676E-04  9.306660E-19  2.370620E-01  0.000000E+00
  8.114890E-01  1.772526E-02  5.000000E-01  8.196841E-01  1.785760E-02  0.000000E+00  7.629441E-03 -3.305667E-04  7.943528E-19  2.447539E-01  0.000000E+00
  8.254710E-01  1.706750E-02  5.000000E-01  8.338073E-01  1.719319E-02  0.000000E+00  7.620093E-03 -3.907930E-04  3.756590E-19  2.492480E-01  0.000000E+00
  8.388180E-01  1.632553E-02  5.000000E-01  8.472891E-01  1.644373E-02  0.000000E+00  7.684430E-03 -4.605571E-04  4.235247E-19  2.496043E-01  0.000000E+00
  8.515320E-01  1.550906E-02  5.000000E-01  8.601315E-01  1.561901E-02  0.000000E+00  7.796228E-03 -5.326079E-04 -5.507714E-19  2.471321E-01  0.000000E+00
  8.636180E-01  1.463492E-02  5.000000E-01  8.723395E-01  1.473605E-02  0.000000E+00  7.938095E-03 -6.035199E-04 -6.286761E-19  2.429176E-01  0.000000E+00
  8.750810E-01  1.372181E-02  5.000000E-01  8.839183E-01  1.381372E-02  0.000000E+00  8.098757E-03 -6.717454E-04  2.913585E-19  2.374363E-01  0.000000E+00
  8.859290E-01  1.278708E-02  5.000000E-01  8.948758E-01  1.286955E-02  0.000000E+00  8.269999E-03 -7.366622E-04 -1.908210E-19  2.310146E-01  0.000000E+00
  8.961710E-01  1.184557E-02  5.000000E-01  9.052213E-01  1.191853E-02  0.000000E+00  8.446311E-03 -7.980608E-04 -2.460475E-20  2.239364E-01  0.000000E+00
  9.058170E-01  1.090998E-02  5.000000E-01  9.149647E-01  1.097349E-02  0.000000E+00  8.624507E-03 -8.559289E-04  5.205304E-19  2.164069E-01  0.000000E+00
  9.148770E-01  9.990830E-03  5.000000E-01  9.241162E-01  1.004506E-02  0.000000E+00  8.802728E-03 -9.102820E-04  9.533286E-19  2.085503E-01  0.000000E+00
  9.148770E-01  9.990830E-03  5.000000E-01  9.241162E-01  1.004506E-02  0.000000E+00  8.802728E-03 -9.102820E-04  9.533286E-19  2.085503E-01  0.000000E+00
  9.233640E-01  9.096902E-03  5.000000E-01  9.326889E-01  9.142101E-03  0.000000E+00  8.980023E-03 -9.613336E-04  7.994738E-19  2.004936E-01  0.000000E+00
  9.312880E-01  8.235224E-03  5.000000E-01  9.406929E-01  8.271722E-03  0.000000E+00  9.156316E-03 -1.009434E-03 -3.076532E-19  1.923448E-01  0.000000E+00
  9.386620E-01  7.411407E-03  5.000000E-01  9.481414E-01  7.439585E-03  0.000000E+00  9.331927E-03 -1.054908E-03 -8.454024E-19  1.841598E-01  0.000000E+00
  9.454960E-01  6.629971E-03  5.000000E-01  9.550444E-01  6.650257E-03  0.000000E+00  9.507025E-03 -1.097958E-03  1.086411E-18  1.759665E-01  0.000000E+00
  9.518040E-01  5.894373E-03  5.000000E-01  9.614161E-01  5.907230E-03  0.000000E+00  9.682068E-03 -1.138895E-03  1.630654E-18  1.678212E-01  0.000000E+00
  9.575950E-01  5.207394E-03  5.000000E-01  9.672656E-01  5.213314E-03  0.000000E+00  9.858618E-03 -1.178158E-03  9.855961E-19  1.597618E-01  0.000000E+00
  9.628810E-01  4.571117E-03  5.000000E-01  9.726050E-01  4.570611E-03  0.000000E+00  1.004009E-02 -1.216314E-03  1.183478E-18  1.518011E-01  0.000000E+00
  9.676710E-01  3.987165E-03  5.000000E-01  9.774433E-01  3.980762E-03  0.000000E+00  1.023291E-02 -1.254332E-03  2.591308E-19  1.439786E-01  0.000000E+00
  9.719750E-01  3.456748E-03  5.000000E-01  9.817908E-01  3.444989E-03  0.000000E+00  1.044562E-02 -1.293336E-03 -8.325292E-19  1.363290E-01  0.000000E+00
  9.758020E-01  2.980732E-03  5.000000E-01  9.856564E-01  2.964165E-03  0.000000E+00  1.068129E-02 -1.333850E-03 -2.159512E-18  1.288937E-01  0.000000E+00
  9.791590E-01  2.559803E-03  5.000000E-01  9.890473E-01  2.538985E-03  0.000000E+00  1.091742E-02 -1.373360E-03 -1.816318E-18  1.215835E-01  0.000000E+00
  9.820540E-01  2.194397E-03  5.000000E-01  9.919716E-01  2.169890E-03  0.000000E+00  1.108708E-02 -1.404330E-03  6.375288E-18  1.147996E-01  0.000000E+00
  9.844930E-01  1.884856E-03  5.000000E-01  9.944352E-01  1.857223E-03  0.000000E+00  1.106546E-02 -1.407561E-03  2.892125E-17  1.094349E-01  0.000000E+00
  9.864820E-01  1.631366E-03  5.000000E-01  9.964443E-01  1.601172E-03  0.000000E+00  1.054127E-02 -1.334790E-03  4.868777E-17  1.018779E-01  0.000000E+00
  9.880240E-01  1.434118E-03  5.000000E-01  9.980019E-01  1.401933E-03  0.000000E+00  9.038828E-03 -1.166611E-03 -4.249552E-17  8.667693E-02  0.000000E+00
  9.891220E-01  1.293179E-03  5.000000E-01  9.991110E-01  1.259571E-03  0.000000E+00  8.333570E-03 -1.180144E-03 -5.130140E-16  1.029034E-01  0.000000E+00
  9.897810E-01  1.208578E-03  5.000000E-01  9.997766E-01  1.174115E-03  0.000000E+00  1.542440E-02 -8.050171E-04 -1.542121E-15  1.930644E-01  0.000000E+00
  9.900000E-01  1.180391E-03  5.000000E-01  9.999978E-01  1.145643E-03  0.000000E+00  1.284396E-02 -1.876532E-03 -2.003171E-15 -4.416611E-02  0.000000E+00
  9.900000E-01  1.366611E-03  5.000000E-01  9.999978E-01  1.333744E-03  0.000000E+00  1.185099E-03 -1.361307E-02 -1.264826E-15 -1.835486E-01  0.000000E+00
  9.900000E-01  1.552821E-03  5.000000E-01  9.999978E-01  1.521835E-03  0.000000E+00 -7.230940E-04 -1.440956E-02 -3.284124E-16 -7.278509E-03  0.000000E+00
  9.900000E-01  1.739042E-03  5.000000E-01  9.999978E-01  1.709936E-03  0.000000E+00 -4.406820E-04  2.671487E-03  4.452068E-16 -1.694342E-02  0.000000E+00
  9.900000E-01  1.925262E-03  5.000000E-01  9.999978E-01  1.898037E-03  0.000000E+00  7.643187E-04  2.961879E-03  1.556975E-15 -1.336672E-01  0.000000E+00
  9.900000E-01  2.111482E-03  5.000000E-01  9.999978E-01  2.086138E-03  0.000000E+00  7.669480E-03 -4.545917E-03  2.349830E-15 -4.073024E-02  0.000000E+00
  9.900000E-01  2.111482E-03  5.000000E-01  9.999978E-01  2.086138E-03  0.000000E+00  7.669480E-03 -4.545917E-03  2.349830E-15 -4.073024E-02  0.000000E+00
  9.897920E-01  2.157428E-03  5.000000E-01  9.997877E-01  2.132547E-03  0.000000E+00  8.368951E-03 -2.632150E-03  1.677168E-15  9.395231E-02  0.000000E+00
  9.891660E-01  2.295254E-03  5.000000E-01  9.991554E-01  2.271765E-03  0.000000E+00  2.932022E-03 -5.606945E-04  5.460566E-16  2.555785E-02  0.000000E+00
  9.881230E-01  2.524849E-03  5.000000E-01  9.981019E-01  2.503679E-03  0.000000E+00  2.765508E-03 -6.044215E-04  4.742466E-17  1.333522E-02  0.000000E+00
  9.866580E-01  2.846132E-03  5.000000E-01  9.966221E-01  2.828206E-03  0.000000E+00  3.316628E-03 -7.341202E-04 -5.325305E-17  1.909186E-02  0.000000E+00
  9.847700E-01  3.258866E-03  5.000000E-01  9.947150E-01  3.245108E-03  0.000000E+00  3.472861E-03 -7.573297E-04 -3.438206E-17  1.695405E-02  0.000000E+00
  9.824550E-01  3.762796E-03  5.000000E-01  9.923766E-01  3.754127E-03  0.000000E+00  3.530437E-03 -7.654977E-04 -1.123199E-17  1.131771E-02  0.000000E+00
  9.797070E-01  4.357573E-03  5.000000E-01  9.896009E-01  4.354911E-03  0.000000E+00  3.620551E-03 -7.812103E-04 -2.277013E-18  4.957125E-03  0.000000E+00
  9.765220E-01  5.042730E-03  5.000000E-01  9.863837E-01  5.046987E-03  0.000000E+00  3.753103E-03 -8.043785E-04 -6.870912E-19 -2.459236E-03  0.000000E+00
  9.728930E-01  5.817707E-03  5.000000E-01  9.827181E-01  5.829791E-03  0.000000E+00  3.926564E-03 -8.349167E-04 -7.855716E-19 -1.104620E-02  0.000000E+00
  9.688130E-01  6.681773E-03  5.000000E-01  9.785969E-01  6.702583E-03  0.000000E+00  4.135936E-03 -8.716386E-04 -1.094545E-18 -2.066530E-02  0.000000E+00
  9.642740E-01  7.634058E-03  5.000000E-01  9.740120E-01  7.664484E-03  0.000000E+00  4.373199E-03 -9.125156E-04 -1.418027E-18 -3.118160E-02  0.000000E+00
  9.592670E-01  8.673490E-03  5.000000E-01  9.689545E-01  8.714414E-03  0.000000E+00  4.631357E-03 -9.558488E-04 -3.034148E-18 -4.255968E-02  0.000000E+00
  9.537850E-01  9.798754E-03  5.000000E-01  9.634171E-01  9.851042E-03  0.000000E+00  4.905674E-03 -1.000278E-03 -4.465054E-18 -5.467783E-02  0.000000E+00
  9.478160E-01  1.100825E-02  5.000000E-01  9.573878E-01  1.107275E-02  0.000000E+00  5.192620E-03 -1.044766E-03 -1.674570E-18 -6.746917E-02  0.000000E+00
  9.413520E-01  1.230015E-02  5.000000E-01  9.508585E-01  1.237770E-02  0.000000E+00  5.489894E-03 -1.088565E-03  1.051963E-18 -8.086348E-02  0.000000E+00
  9.343800E-01  1.367228E-02  5.000000E-01  9.438161E-01  1.376369E-02  0.000000E+00  5.795578E-03 -1.130994E-03  1.417842E-18 -9.475849E-02  0.000000E+00
  9.268920E-01  1.512181E-02  5.000000E-01  9.362525E-01  1.522786E-02  0.000000E+00  6.107936E-03 -1.171425E-03  1.095845E-18 -1.090932E-01  0.000000E+00
  9.188750E-01  1.664578E-02  5.000000E-01  9.281545E-01  1.676722E-02  0.000000E+00  6.425384E-03 -1.209206E-03 -3.705093E-21 -1.237546E-01  0.000000E+00
  9.103190E-01  1.824050E-02  5.000000E-01  9.195121E-01  1.837803E-02  0.000000E+00  6.746207E-03 -1.243721E-03 -1.744252E-18 -1.386640E-01  0.000000E+00
  9.012130E-01  1.990171E-02  5.000000E-01  9.103142E-01  2.005602E-02  0.000000E+00  7.068634E-03 -1.274234E-03 -1.975560E-18 -1.536912E-01  0.000000E+00
  8.915460E-01  2.162434E-02  5.000000E-01  9.005496E-01  2.179606E-02  0.000000E+00  7.390520E-03 -1.300036E-03 -1.419841E-18 -1.687292E-01  0.000000E+00
  8.813080E-01  2.340278E-02  5.000000E-01  8.902082E-01  2.359245E-02  0.000000E+00  7.709223E-03 -1.320364E-03 -2.567302E-18 -1.836142E-01  0.000000E+00
  8.704900E-01  2.523031E-02  5.000000E-01  8.792809E-01  2.543844E-02  0.000000E+00  8.020751E-03 -1.334323E-03 -1.427252E-18 -1.981067E-01  0.000000E+00
  8.704900E-01  2.523031E-02  5.000000E-01  8.792809E-01  2.543844E-02  0.000000E+00  8.020751E-03 -1.334323E-03 -1.427252E-18 -1.981067E-01  0.000000E+00
  8.590830E-01  2.709969E-02  5.000000E-01  8.677587E-01  2.732669E-02  0.000000E+00  8.319914E-03 -1.341284E-03  3.566594E-19 -2.120577E-01  0.000000E+00
  8.470810E-01  2.900359E-02  5.000000E-01  8.556355E-01  2.924982E-02  0.000000E+00  8.601391E-03 -1.340914E-03  5.313613E-19 -2.253083E-01  0.000000E+00
  8.344780E-01  3.093482E-02  5.000000E-01  8.429052E-01  3.120056E-02  0.000000E+00  8.858846E-03 -1.333075E-03  1.051936E-18 -2.375063E-01  0.000000E+00
  8.212700E-01  3.288705E-02  5.000000E-01  8.295639E-01  3.317251E-02  0.000000E+00  9.082979E-03 -1.318282E-03  5.079655E-19 -2.481383E-01  0.000000E+00
  8.074550E-01  3.485662E-02  5.000000E-01  8.156093E-01  3.516196E-02  0.000000E+00  9.262787E-03 -1.298801E-03 -1.548806E-18 -2.570008E-01  0.000000E+00
  7.930350E-01  3.684557E-02  5.000000E-01  8.010437E-01  3.717100E-02  0.000000E+00  9.394318E-03 -1.279577E-03 -9.663660E-19 -2.651229E-01  0.000000E+00
  7.780130E-01  3.886530E-02  5.000000E-01  7.858700E-01  3.921112E-02  0.000000E+00  9.491226E-03 -1.265634E-03  3.536863E-19 -2.743262E-01  0.000000E+00
  7.623950E-01  4.093032E-02  5.000000E-01  7.700943E-01  4.129700E-02  0.000000E+00  9.578453E-03 -1.255672E-03 -9.547992E-19 -2.847719E-01  0.000000E+00
  7.461930E-01  4.303644E-02  5.000000E-01  7.537287E-01  4.342439E-02  0.000000E+00  9.671578E-03 -1.245537E-03 -2.023181E-18 -2.956432E-01  0.000000E+00
  7.294180E-01  4.517657E-02  5.000000E-01  7.367843E-01  4.558613E-02  0.000000E+00  9.771982E-03 -1.235196E-03 -2.273046E-18 -3.067577E-01  0.000000E+00
  7.120900E-01  4.734695E-02  5.000000E-01  7.192813E-01  4.777843E-02  0.000000E+00  9.874771E-03 -1.226690E-03 -1.493616E-18 -3.177719E-01  0.000000E+00
  6.942280E-01  4.954860E-02  5.000000E-01  7.012389E-01  5.000231E-02  0.000000E+00  9.975225E-03 -1.223340E-03 -4.336093E-19 -3.290331E-01  0.000000E+00
  6.758590E-01  5.179021E-02  5.000000E-01  6.826844E-01  5.226656E-02  0.000000E+00  1.008287E-02 -1.230539E-03 -6.632840E-20 -3.428939E-01  0.000000E+00
  6.570120E-01  5.408899E-02  5.000000E-01  6.636470E-01  5.458856E-02  0.000000E+00  1.023314E-02 -1.250960E-03  4.571722E-19 -3.621861E-01  0.000000E+00
  6.377220E-01  5.645174E-02  5.000000E-01  6.441622E-01  5.697517E-02  0.000000E+00  1.047308E-02 -1.276702E-03  1.207147E-18 -3.868549E-01  0.000000E+00
  6.180260E-01  5.884174E-02  5.000000E-01  6.242673E-01  5.938931E-02  0.000000E+00  1.083159E-02 -1.295938E-03  1.413862E-18 -4.159077E-01  0.000000E+00
  5.979670E-01  6.120721E-02  5.000000E-01  6.040058E-01  6.177866E-02  0.000000E+00  1.131248E-02 -1.299529E-03  8.400749E-19 -4.488925E-01  0.000000E+00
  5.775910E-01  6.348678E-02  5.000000E-01  5.834240E-01  6.408126E-02  0.000000E+00  1.189269E-02 -1.274608E-03  2.003607E-19 -4.821509E-01  0.000000E+00
  5.569470E-01  6.560907E-02  5.000000E-01  5.625715E-01  6.622498E-02  0.000000E+00  1.250219E-02 -1.205879E-03  5.552733E-19 -5.082793E-01  0.000000E+00
  5.360860E-01  6.749761E-02  5.000000E-01  5.414998E-01  6.813259E-02  0.000000E+00  1.302931E-02 -1.099999E-03  7.637047E-19 -5.242173E-01  0.000000E+00
  5.150640E-01  6.914823E-02  5.000000E-01  5.202655E-01  6.979988E-02  0.000000E+00  1.338510E-02 -9.874734E-04 -4.469110E-19 -5.332720E-01  0.000000E+00
  4.939370E-01  7.060878E-02  5.000000E-01  4.989252E-01  7.127518E-02  0.000000E+00  1.355134E-02 -8.911046E-04 -1.107353E-18 -5.382898E-01  0.000000E+00
  4.727610E-01  7.193136E-02  5.000000E-01  4.775353E-01  7.261111E-02  0.000000E+00  1.356679E-02 -8.210385E-04 -4.887351E-19 -5.428439E-01  0.000000E+00
  5.770140E-06 -6.586005E-05  5.000000E-01  5.829536E-06 -1.131934E-04  0.000000E+00  4.026540E-03 -2.375165E-02 -5.237402E-13  9.066736E-01  0.000000E+00
  9.104010E-05 -3.970262E-04  5.000000E-01  9.196062E-05 -4.477040E-04  0.000000E+00  2.020150E-02 -3.590795E-02 -4.515410E-13  9.058641E-01  0.000000E+00
  4.796980E-04 -9.095274E-04  5.000000E-01  4.845435E-04 -9.653809E-04  0.000000E+00  3.825648E-02 -3.455025E-02 -3.002584E-13  5.948150E-01  0.000000E+00
  1.456590E-03 -1.502967E-03  5.000000E-01  1.471301E-03 -1.564814E-03  0.000000E+00  4.116375E-02 -2.033732E-02 -1.446500E-13  2.720870E-01  0.000000E+00
  3.096410E-03 -2.078518E-03  5.000000E-01  3.127681E-03 -2.146177E-03  0.000000E+00  3.371727E-02 -1.021495E-02 -4.421076E-14  1.636389E-01  0.000000E+00
  5.335170E-03 -2.614764E-03  5.000000E-01  5.389050E-03 -2.687838E-03  0.000000E+00  2.705608E-02 -5.682736E-03 -1.786680E-15  1.477552E-01  0.000000E+00
  8.129670E-03 -3.106013E-03  5.000000E-01  8.211771E-03 -3.184049E-03  0.000000E+00  2.301640E-02 -3.539601E-03  7.378237E-15  1.256836E-01  0.000000E+00
  1.145600E-02 -3.534495E-03  5.000000E-01  1.157169E-02 -3.616858E-03  0.000000E+00  1.995178E-02 -2.095967E-03  5.109567E-15  8.890235E-02  0.000000E+00
  1.529970E-02 -3.833242E-03  5.000000E-01  1.545421E-02 -3.918622E-03  0.000000E+00  1.663567E-02 -8.480923E-04  1.885303E-15  4.933261E-02  0.000000E+00
  1.962420E-02 -3.908865E-03  5.000000E-01  1.982238E-02 -3.995008E-03  0.000000E+00  1.313969E-02  3.688293E-06  2.747212E-16  3.972220E-02  0.000000E+00
  2.439810E-02 -3.783193E-03  5.000000E-01  2.464449E-02 -3.868068E-03  0.000000E+00  1.076716E-02  2.756686E-04 -1.409840E-16  9.164799E-02  0.000000E+00
  2.966100E-02 -3.649569E-03  5.000000E-01  2.996054E-02 -3.733094E-03  0.000000E+00  1.034879E-02  2.133857E-04 -1.200642E-16  1.564106E-01  0.000000E+00
  3.543640E-02 -3.572825E-03  5.000000E-01  3.579427E-02 -3.655575E-03  0.000000E+00  1.110682E-02  1.092602E-04 -4.258088E-17  1.736916E-01  0.000000E+00
  4.172970E-02 -3.534098E-03  5.000000E-01  4.215112E-02 -3.616457E-03  0.000000E+00  1.188924E-02  6.850198E-05 -3.736653E-18  1.584799E-01  0.000000E+00
  4.854440E-02 -3.494596E-03  5.000000E-01  4.903464E-02 -3.576556E-03  0.000000E+00  1.223132E-02  1.131517E-04  4.696047E-18  1.381196E-01  0.000000E+00
  5.588220E-02 -3.399772E-03  5.000000E-01  5.644654E-02 -3.480774E-03  0.000000E+00  1.219623E-02  2.064316E-04  3.587367E-18  1.245053E-01  0.000000E+00
  6.375220E-02 -3.232731E-03  5.000000E-01  6.439602E-02 -3.312046E-03  0.000000E+00  1.202023E-02  2.886778E-04  2.043713E-18  1.209229E-01  0.000000E+00
  7.217040E-02 -3.006066E-03  5.000000E-01  7.289924E-02 -3.083092E-03  0.000000E+00  1.189336E-02  3.360172E-04 -1.213743E-19  1.228080E-01  0.000000E+00
  8.115500E-02 -2.741023E-03  5.000000E-01  8.197457E-02 -2.815372E-03  0.000000E+00  1.186740E-02  3.622993E-04 -7.731165E-19  1.234849E-01  0.000000E+00
  9.072040E-02 -2.440543E-03  5.000000E-01  9.163657E-02 -2.511858E-03  0.000000E+00  1.189192E-02  3.903897E-04  2.788826E-20  1.197460E-01  0.000000E+00
  1.008780E-01 -2.092877E-03  5.000000E-01  1.018967E-01 -2.160681E-03  0.000000E+00  1.190616E-02  4.294048E-04  8.219476E-19  1.136824E-01  0.000000E+00
  1.116380E-01 -1.684518E-03  5.000000E-01  1.127654E-01 -1.748198E-03  0.000000E+00  1.187946E-02  4.801708E-04  1.373204E-18  1.077809E-01  0.000000E+00
  1.230100E-01 -1.196592E-03  5.000000E-01  1.242523E-01 -1.255345E-03  0.000000E+00  1.179226E-02  5.428791E-04  6.941798E-19  1.027855E-01  0.000000E+00
  1.350030E-01 -6.066117E-04  5.000000E-01  1.363664E-01 -6.594060E-04  0.000000E+00  1.162155E-02  6.160015E-04  1.293345E-18  9.932228E-02  0.000000E+00
  1.350030E-01 -6.066117E-04  5.000000E-01  1.363664E-01 -6.594060E-04  0.000000E+00  1.162155E-02  6.160015E-04  1.293345E-18  9.932228E-02  0.000000E+00
  1.476220E-01  1.112312E-04  5.000000E-01  1.491128E-01  6.568619E-05  0.000000E+00  1.134654E-02  6.958611E-04  1.534530E-18  9.841423E-02  0.000000E+00
  1.608730E-01  9.846187E-04  5.000000E-01  1.624976E-01  9.478939E-04  0.000000E+00  1.096038E-02  7.765181E-04  2.064549E-18  1.013178E-01  0.000000E+00
  1.747560E-01  2.039780E-03  5.000000E-01  1.765208E-01  2.013711E-03  0.000000E+00  1.047849E-02  8.490466E-04  3.160570E-18  1.090436E-01  0.000000E+00
  1.892730E-01  3.292497E-03  5.000000E-01  1.911844E-01  3.279079E-03  0.000000E+00  9.940952E-03  8.997269E-04  1.043761E-18  1.220747E-01  0.000000E+00
  2.044180E-01  4.732236E-03  5.000000E-01  2.064824E-01  4.733358E-03  0.000000E+00  9.416122E-03  9.119556E-04  4.095461E-19  1.415449E-01  0.000000E+00
  2.201880E-01  6.291043E-03  5.000000E-01  2.224116E-01  6.307907E-03  0.000000E+00  8.970501E-03  8.856012E-04  7.695781E-19  1.650167E-01  0.000000E+00
  2.365750E-01  7.904604E-03  5.000000E-01  2.389641E-01  7.937762E-03  0.000000E+00  8.621832E-03  8.388382E-04 -4.854959E-19  1.863255E-01  0.000000E+00
  2.535710E-01  9.535573E-03  5.000000E-01  2.561318E-01  9.585203E-03  0.000000E+00  8.354683E-03  7.842427E-04 -9.418357E-19  2.035525E-01  0.000000E+00
  2.711570E-01  1.114888E-02  5.000000E-01  2.738954E-01  1.121480E-02  0.000000E+00  8.163897E-03  7.243312E-04  1.129137E-19  2.182956E-01  0.000000E+00
  2.893100E-01  1.270456E-02  5.000000E-01  2.922317E-01  1.278620E-02  0.000000E+00  8.061269E-03  6.582997E-04  6.076156E-19  2.312677E-01  0.000000E+00
  3.080020E-01  1.415493E-02  5.000000E-01  3.111125E-01  1.425121E-02  0.000000E+00  8.055724E-03  5.855280E-04  4.920257E-19  2.415924E-01  0.000000E+00
  3.271950E-01  1.545653E-02  5.000000E-01  3.304993E-01  1.556595E-02  0.000000E+00  8.139062E-03  5.077216E-04  1.126457E-18  2.484381E-01  0.000000E+00
  3.468470E-01  1.657653E-02  5.000000E-01  3.503497E-01  1.669727E-02  0.000000E+00  8.275771E-03  4.347931E-04  9.474726E-19  2.503990E-01  0.000000E+00
  3.669110E-01  1.754082E-02  5.000000E-01  3.706164E-01  1.767129E-02  0.000000E+00  8.405239E-03  3.797749E-04  8.288403E-19  2.471246E-01  0.000000E+00
  3.873360E-01  1.840545E-02  5.000000E-01  3.912476E-01  1.854466E-02  0.000000E+00  8.468386E-03  3.478077E-04  8.004254E-19  2.416701E-01  0.000000E+00
  4.080670E-01  1.923203E-02  5.000000E-01  4.121880E-01  1.937958E-02  0.000000E+00  8.428174E-03  3.385856E-04  1.084961E-18  2.373528E-01  0.000000E+00
  4.290470E-01  2.008088E-02  5.000000E-01  4.333799E-01  2.023701E-02  0.000000E+00  8.269355E-03  3.489776E-04  1.177287E-18  2.353915E-01  0.000000E+00
  4.502140E-01  2.101159E-02  5.000000E-01  4.547606E-01  2.117711E-02  0.000000E+00  8.005772E-03  3.646854E-04 -1.927618E-20  2.376333E-01  0.000000E+00
  4.715070E-01  2.201962E-02  5.000000E-01  4.762687E-01  2.219532E-02  0.000000E+00  7.691721E-03  3.639389E-04 -1.117473E-18  2.466130E-01  0.000000E+00
  4.928620E-01  2.303109E-02  5.000000E-01  4.978393E-01  2.321701E-02  0.000000E+00  7.396384E-03  3.376052E-04 -2.093139E-18  2.602073E-01  0.000000E+00
  5.142140E-01  2.396589E-02  5.000000E-01  5.194070E-01  2.416125E-02  0.000000E+00  7.168864E-03  2.881294E-04 -3.435481E-18  2.739440E-01  0.000000E+00
  5.355000E-01  2.474237E-02  5.000000E-01  5.409079E-01  2.494557E-02  0.000000E+00  7.035778E-03  2.183393E-04 -4.705211E-18  2.857716E-01  0.000000E+00
  5.566560E-01  2.528277E-02  5.000000E-01  5.622776E-01  2.549143E-02  0.000000E+00  7.007908E-03  1.333046E-04 -8.128835E-19  2.944919E-01  0.000000E+00
  4.727610E-01  7.193136E-02  5.000000E-01  4.775353E-01  7.261111E-02  0.000000E+00  1.356679E-02 -8.210385E-04 -4.887351E-19 -5.428439E-01  0.000000E+00
  4.515970E-01  7.316984E-02  5.000000E-01  4.561576E-01  7.386210E-02  0.000000E+00  1.351430E-02 -7.827700E-04 -9.554430E-19 -5.534375E-01  0.000000E+00
  4.305020E-01  7.437664E-02  5.000000E-01  4.348496E-01  7.508109E-02  0.000000E+00  1.350847E-02 -7.664076E-04 -4.727294E-19 -5.739660E-01  0.000000E+00
  4.095340E-01  7.555611E-02  5.000000E-01  4.136698E-01  7.627247E-02  0.000000E+00  1.364757E-02 -7.464951E-04  1.083388E-18 -6.027900E-01  0.000000E+00
  3.887520E-01  7.666101E-02  5.000000E-01  3.926779E-01  7.738853E-02  0.000000E+00  1.397198E-02 -7.045819E-04  6.457869E-19 -6.379326E-01  0.000000E+00
  3.682080E-01  7.764125E-02  5.000000E-01  3.719265E-01  7.837867E-02  0.000000E+00  1.447298E-02 -6.315853E-04  3.833049E-19 -6.775958E-01  0.000000E+00
  3.479570E-01  7.844570E-02  5.000000E-01  3.514710E-01  7.919124E-02  0.000000E+00  1.510629E-02 -5.174570E-04  4.933929E-19 -7.174347E-01  0.000000E+00
  3.280470E-01  7.902513E-02  5.000000E-01  3.313599E-01  7.977652E-02  0.000000E+00  1.579503E-02 -3.590841E-04  3.917350E-19 -7.535015E-01  0.000000E+00
  3.085240E-01  7.935048E-02  5.000000E-01  3.116397E-01  8.010515E-02  0.000000E+00  1.646030E-02 -1.708595E-04  8.757055E-19 -7.865326E-01  0.000000E+00
  2.894320E-01  7.943303E-02  5.000000E-01  2.923549E-01  8.018855E-02  0.000000E+00  1.706738E-02  3.294793E-05  5.771007E-19 -8.192414E-01  0.000000E+00
  2.708110E-01  7.928489E-02  5.000000E-01  2.735459E-01  8.003891E-02  0.000000E+00  1.763445E-02  2.531980E-04 -1.363284E-19 -8.542655E-01  0.000000E+00
  2.526960E-01  7.891117E-02  5.000000E-01  2.552479E-01  7.966141E-02  0.000000E+00  1.822152E-02  4.990312E-04  1.848159E-19 -8.961657E-01  0.000000E+00
  2.351200E-01  7.831285E-02  5.000000E-01  2.374944E-01  7.905705E-02  0.000000E+00  1.891869E-02  7.992801E-04  1.715901E-19 -9.459851E-01  0.000000E+00
  2.181120E-01  7.746038E-02  5.000000E-01  2.203147E-01  7.819597E-02  0.000000E+00  1.978699E-02  1.202679E-03 -6.606759E-19 -9.976426E-01  0.000000E+00
  2.017010E-01  7.629677E-02  5.000000E-01  2.037379E-01  7.702061E-02  0.000000E+00  2.080370E-02  1.737831E-03 -6.930435E-19 -1.045856E+00  0.000000E+00
  1.859190E-01  7.478849E-02  5.000000E-01  1.877966E-01  7.549709E-02  0.000000E+00  2.189744E-02  2.407924E-03  4.568051E-19 -1.088226E+00  0.000000E+00
  1.707920E-01  7.291779E-02  5.000000E-01  1.725168E-01  7.360751E-02  0.000000E+00  2.299346E-02  3.217132E-03  4.846758E-19 -1.120146E+00  0.000000E+00
  1.563470E-01  7.067313E-02  5.000000E-01  1.579259E-01  7.134017E-02  0.000000E+00  2.400769E-02  4.162810E-03 -1.059167E-18 -1.135621E+00  0.000000E+00
  1.426070E-01  6.805370E-02  5.000000E-01  1.440472E-01  6.869430E-02  0.000000E+00  2.484474E-02  5.216315E-03 -1.566387E-18 -1.130157E+00  0.000000E+00
  1.295900E-01  6.507720E-02  5.000000E-01  1.308987E-01  6.568773E-02  0.000000E+00  2.541971E-02  6.321792E-03 -1.562468E-18 -1.102277E+00  0.000000E+00
  1.173060E-01  6.178085E-02  5.000000E-01  1.184907E-01  6.235810E-02  0.000000E+00  2.568348E-02  7.415745E-03 -3.285279E-18 -1.052707E+00  0.000000E+00
  1.057600E-01  5.821337E-02  5.000000E-01  1.068281E-01  5.875459E-02  0.000000E+00  2.562912E-02  8.443175E-03 -2.534484E-18 -9.835111E-01  0.000000E+00
  9.495290E-02  5.443077E-02  5.000000E-01  9.591181E-02  5.493378E-02  0.000000E+00  2.528690E-02  9.360430E-03  1.365091E-18 -8.983446E-01  0.000000E+00
  8.487680E-02  5.049431E-02  5.000000E-01  8.573396E-02  5.095758E-02  0.000000E+00  2.471384E-02  1.014248E-02  7.173591E-18 -8.005620E-01  0.000000E+00
  8.487680E-02  5.049431E-02  5.000000E-01  8.573396E-02  5.095758E-02  0.000000E+00  2.471384E-02  1.014248E-02  7.173591E-18 -8.005620E-01  0.000000E+00
  7.552090E-02  4.646602E-02  5.000000E-01  7.628357E-02  4.688860E-02  0.000000E+00  2.396196E-02  1.077650E-02  1.248627E-17 -6.914395E-01  0.000000E+00
  6.687020E-02  4.240516E-02  5.000000E-01  6.754551E-02  4.278673E-02  0.000000E+00  2.305736E-02  1.123138E-02  1.262842E-17 -5.737924E-01  0.000000E+00
  5.889940E-02  3.837637E-02  5.000000E-01  5.949422E-02  3.871725E-02  0.000000E+00  2.203614E-02  1.147150E-02  1.059613E-17 -4.548286E-01  0.000000E+00
  5.157140E-02  3.444533E-02  5.000000E-01  5.209221E-02  3.474651E-02  0.000000E+00  2.099019E-02  1.152177E-02  6.690668E-18 -3.428283E-01  0.000000E+00
  4.484650E-02  3.066583E-02  5.000000E-01  4.529940E-02  3.092885E-02  0.000000E+00  2.005752E-02  1.149913E-02  4.674423E-18 -2.420295E-01  0.000000E+00
  3.869820E-02  2.706868E-02  5.000000E-01  3.908901E-02  2.729537E-02  0.000000E+00  1.936904E-02  1.156520E-02 -1.966749E-18 -1.514336E-01  0.000000E+00
  3.311550E-02  2.366568E-02  5.000000E-01  3.344993E-02  2.385800E-02  0.000000E+00  1.898337E-02  1.183529E-02 -2.036364E-17 -6.585337E-02  0.000000E+00
  2.809130E-02  2.046415E-02  5.000000E-01  2.837499E-02  2.062415E-02  0.000000E+00  1.875551E-02  1.227230E-02 -4.778890E-17  2.994609E-02  0.000000E+00
  2.362330E-02  1.746790E-02  5.000000E-01  2.386187E-02  1.759764E-02  0.000000E+00  1.829618E-02  1.252613E-02 -9.832099E-17  1.459966E-01  0.000000E+00
  1.966610E-02  1.470139E-02  5.000000E-01  1.986471E-02  1.480319E-02  0.000000E+00  1.739449E-02  1.211879E-02 -1.636354E-16  2.565460E-01  0.000000E+00
  1.609460E-02  1.221933E-02  5.000000E-01  1.625714E-02  1.229607E-02  0.000000E+00  1.637097E-02  1.114808E-02 -1.046200E-16  3.346618E-01  0.000000E+00
  1.282740E-02  1.004158E-02  5.000000E-01  1.295694E-02  1.009632E-02  0.000000E+00  1.579893E-02  1.031127E-02  5.088446E-16  3.831748E-01  0.000000E+00
  9.860990E-03  8.148075E-03  5.000000E-01  9.960575E-03  8.183693E-03  0.000000E+00  1.607936E-02  1.023941E-02  2.384582E-15  4.200775E-01  0.000000E+00
  7.251350E-03  6.491623E-03  5.000000E-01  7.324581E-03  6.510512E-03  0.000000E+00  1.729139E-02  1.118015E-02  5.582956E-15  4.597697E-01  0.000000E+00
  5.038810E-03  5.037886E-03  5.000000E-01  5.089697E-03  5.042095E-03  0.000000E+00  1.932555E-02  1.319601E-02  6.775917E-15  5.048006E-01  0.000000E+00
  3.239710E-03  3.769227E-03  5.000000E-01  3.272428E-03  3.760624E-03  0.000000E+00  2.182329E-02  1.642405E-02 -5.035507E-15  5.618457E-01  0.000000E+00
  1.861880E-03  2.675901E-03  5.000000E-01  1.880684E-03  2.656256E-03  0.000000E+00  2.348918E-02  2.063608E-02 -5.035231E-14  6.476848E-01  0.000000E+00
  9.013910E-04  1.756517E-03  5.000000E-01  9.104951E-04  1.727587E-03  0.000000E+00  2.128270E-02  2.354372E-02 -1.500154E-13  7.834919E-01  0.000000E+00
  3.295630E-04  1.019312E-03  5.000000E-01  3.328923E-04  9.829378E-04  0.000000E+00  1.248140E-02  1.837089E-02 -3.005572E-13  9.512165E-01  0.000000E+00
  7.194000E-05  4.800766E-04  5.000000E-01  7.266763E-05  4.382566E-04  0.000000E+00  1.724779E-03 -1.524789E-03 -4.504087E-13  1.028534E+00  0.000000E+00
  4.516100E-06  1.545125E-04  5.000000E-01  4.562831E-06  1.094046E-04  0.000000E+00 -2.568479E-03 -2.388176E-02 -5.256168E-13  9.256228E-01  0.000000E+00
 -1.112850E-09  4.620170E-05  5.000000E-01  0.000000E+00  0.000000E+00  0.000000E+00 -1.296978E-03 -2.482204E-02 -5.344147E-13  8.251856E-01  0.000000E+00