 Title = "ADflow Slice Data"
Variables =  "CoordinateX"  "CoordinateY"  "CoordinateZ"  "XoC"  "YoC"  "ZoC" "VelocityX" "VelocityY" "VelocityZ" "CoefPressure" "Mach" 
Zone T= "Slice_0001 None Absolute Regular z = 0.50000000"
 Nodes =          192  Elements=          184  ZONETYPE=FELINESEG
 DATAPACKING=POINT
  5.566560E-01  2.995385E-02  5.000000E-01  5.622776E-01  3.019571E-02  0.000000E+00  7.408127E-03  2.058067E-05  1.210064E-16  3.017616E-01  0.000000E+00
  5.776220E-01  2.993744E-02  5.000000E-01  5.834553E-01  3.017913E-02  0.000000E+00  7.436431E-03 -3.161986E-05  2.578459E-16  3.007320E-01  0.000000E+00
  5.983370E-01  2.977769E-02  5.000000E-01  6.043795E-01  3.001777E-02  0.000000E+00  7.472793E-03 -8.256695E-05  1.932475E-16  2.989644E-01  0.000000E+00
  6.187480E-01  2.948439E-02  5.000000E-01  6.249967E-01  2.972150E-02  0.000000E+00  7.514919E-03 -1.319768E-04  1.469710E-16  2.966322E-01  0.000000E+00
  6.388030E-01  2.906854E-02  5.000000E-01  6.452542E-01  2.930146E-02  0.000000E+00  7.561051E-03 -1.798798E-04  7.741132E-17  2.938949E-01  0.000000E+00
  6.584530E-01  2.854146E-02  5.000000E-01  6.651026E-01  2.876905E-02  0.000000E+00  7.609480E-03 -2.262429E-04 -1.053204E-18  2.908618E-01  0.000000E+00
  6.776550E-01  2.791495E-02  5.000000E-01  6.844985E-01  2.813621E-02  0.000000E+00  7.657374E-03 -2.706318E-04 -1.933236E-17  2.875115E-01  0.000000E+00
  6.963720E-01  2.720287E-02  5.000000E-01  7.034046E-01  2.741695E-02  0.000000E+00  7.701022E-03 -3.129456E-04 -7.379616E-18  2.839762E-01  0.000000E+00
  7.145680E-01  2.641658E-02  5.000000E-01  7.217843E-01  2.662272E-02  0.000000E+00  7.737063E-03 -3.534470E-04 -1.806801E-17  2.804438E-01  0.000000E+00
  7.322140E-01  2.556700E-02  5.000000E-01  7.396085E-01  2.576456E-02  0.000000E+00  7.763091E-03 -3.919617E-04 -4.506870E-17  2.769581E-01  0.000000E+00
  7.492860E-01  2.466523E-02  5.000000E-01  7.568529E-01  2.485368E-02  0.000000E+00  7.779570E-03 -4.280788E-04 -5.945824E-17  2.736433E-01  0.000000E+00
  7.657630E-01  2.372219E-02  5.000000E-01  7.734963E-01  2.390112E-02  0.000000E+00  7.791104E-03 -4.620193E-04 -5.302966E-17  2.703853E-01  0.000000E+00
  7.816300E-01  2.274801E-02  5.000000E-01  7.895236E-01  2.291710E-02  0.000000E+00  7.808597E-03 -4.986277E-04 -3.504092E-17  2.672516E-01  0.000000E+00
  7.968740E-01  2.173835E-02  5.000000E-01  8.049215E-01  2.189724E-02  0.000000E+00  7.855967E-03 -5.490525E-04 -2.040588E-17  2.652369E-01  0.000000E+00
  8.114890E-01  2.066458E-02  5.000000E-01  8.196841E-01  2.081263E-02  0.000000E+00  7.957348E-03 -6.170432E-04 -1.181250E-17  2.631325E-01  0.000000E+00
  8.254710E-01  1.952309E-02  5.000000E-01  8.338073E-01  1.965961E-02  0.000000E+00  8.112320E-03 -6.941888E-04 -2.248172E-18  2.583298E-01  0.000000E+00
  8.388180E-01  1.832901E-02  5.000000E-01  8.472891E-01  1.845347E-02  0.000000E+00  8.300798E-03 -7.714707E-04  8.200959E-18  2.507315E-01  0.000000E+00
  8.515320E-01  1.710436E-02  5.000000E-01  8.601315E-01  1.721645E-02  0.000000E+00  8.503457E-03 -8.436863E-04  1.671188E-17  2.415174E-01  0.000000E+00
  8.636180E-01  1.587125E-02  5.000000E-01  8.723396E-01  1.597089E-02  0.000000E+00  8.708701E-03 -9.087119E-04  1.918303E-17  2.315463E-01  0.000000E+00
  8.750810E-01  1.464922E-02  5.000000E-01  8.839183E-01  1.473651E-02  0.000000E+00  8.909706E-03 -9.660099E-04  1.503645E-17  2.212004E-01  0.000000E+00
  8.859290E-01  1.345380E-02  5.000000E-01  8.948759E-01  1.352903E-02  0.000000E+00  9.102219E-03 -1.015848E-03  9.091557E-18  2.107596E-01  0.000000E+00
  8.961710E-01  1.229665E-02  5.000000E-01  9.052213E-01  1.236019E-02  0.000000E+00  9.284256E-03 -1.058896E-03  4.865985E-18  2.004427E-01  0.000000E+00
  9.058170E-01  1.118637E-02  5.000000E-01  9.149647E-01  1.123870E-02  0.000000E+00  9.455515E-03 -1.095964E-03  5.388303E-18  1.903775E-01  0.000000E+00
  9.148770E-01  1.012908E-02  5.000000E-01  9.241162E-01  1.017073E-02  0.000000E+00  9.616422E-03 -1.127780E-03  4.130317E-20  1.806183E-01  0.000000E+00
  9.148770E-01  1.012908E-02  5.000000E-01  9.241162E-01  1.017073E-02  0.000000E+00  9.616422E-03 -1.127780E-03  4.130317E-20  1.806183E-01  0.000000E+00
  9.233640E-01  9.128934E-03  5.000000E-01  9.326889E-01  9.160483E-03  0.000000E+00  9.767832E-03 -1.155148E-03 -4.650436E-18  1.712220E-01  0.000000E+00
  9.312880E-01  8.188605E-03  5.000000E-01  9.406930E-01  8.210658E-03  0.000000E+00  9.911139E-03 -1.178890E-03 -2.366526E-18  1.622349E-01  0.000000E+00
  9.386620E-01  7.309488E-03  5.000000E-01  9.481414E-01  7.322662E-03  0.000000E+00  1.004784E-02 -1.199731E-03 -3.617682E-18  1.536507E-01  0.000000E+00
  9.454960E-01  6.492250E-03  5.000000E-01  9.550444E-01  6.497172E-03  0.000000E+00  1.017900E-02 -1.218187E-03 -2.739279E-18  1.454385E-01  0.000000E+00
  9.518040E-01  5.736763E-03  5.000000E-01  9.614161E-01  5.734054E-03  0.000000E+00  1.030583E-02 -1.234799E-03  1.574482E-18  1.376083E-01  0.000000E+00
  9.575950E-01  5.042634E-03  5.000000E-01  9.672656E-01  5.032916E-03  0.000000E+00  1.043047E-02 -1.250197E-03  7.898738E-18  1.301489E-01  0.000000E+00
  9.628810E-01  4.409065E-03  5.000000E-01  9.726050E-01  4.392949E-03  0.000000E+00  1.055680E-02 -1.265083E-03  2.129852E-17  1.230308E-01  0.000000E+00
  9.676710E-01  3.835150E-03  5.000000E-01  9.774434E-01  3.813238E-03  0.000000E+00  1.069154E-02 -1.280496E-03  5.778218E-17  1.162453E-01  0.000000E+00
  9.719750E-01  3.319864E-03  5.000000E-01  9.817908E-01  3.292748E-03  0.000000E+00  1.084347E-02 -1.297579E-03  1.681153E-16  1.097853E-01  0.000000E+00
  9.758020E-01  2.862133E-03  5.000000E-01  9.856565E-01  2.830394E-03  0.000000E+00  1.101629E-02 -1.316891E-03  4.722654E-16  1.036599E-01  0.000000E+00
  9.791590E-01  2.460970E-03  5.000000E-01  9.890474E-01  2.425180E-03  0.000000E+00  1.118852E-02 -1.336173E-03  1.118526E-15  9.773339E-02  0.000000E+00
  9.820540E-01  2.115390E-03  5.000000E-01  9.919716E-01  2.076110E-03  0.000000E+00  1.129427E-02 -1.348613E-03  1.844927E-15  9.234388E-02  0.000000E+00
  9.844930E-01  1.824540E-03  5.000000E-01  9.944353E-01  1.782323E-03  0.000000E+00  1.121116E-02 -1.336586E-03  6.222660E-16  8.837293E-02  0.000000E+00
  9.864820E-01  1.587632E-03  5.000000E-01  9.964443E-01  1.543022E-03  0.000000E+00  1.063291E-02 -1.254990E-03 -6.632663E-15  8.220929E-02  0.000000E+00
  9.880240E-01  1.404066E-03  5.000000E-01  9.980019E-01  1.357603E-03  0.000000E+00  9.079794E-03 -1.088925E-03 -1.185420E-14  6.792561E-02  0.000000E+00
  9.891220E-01  1.273309E-03  5.000000E-01  9.991110E-01  1.225525E-03  0.000000E+00  8.343913E-03 -1.106662E-03  2.772450E-14  8.458962E-02  0.000000E+00
  9.897810E-01  1.194992E-03  5.000000E-01  9.997767E-01  1.146418E-03  0.000000E+00  1.563786E-02 -6.649351E-04  1.184940E-13  1.780957E-01  0.000000E+00
  9.900000E-01  1.168923E-03  5.000000E-01  9.999979E-01  1.120085E-03  0.000000E+00  1.309010E-02 -1.661315E-03  1.502601E-13 -6.190459E-02  0.000000E+00
  9.900000E-01  1.355144E-03  5.000000E-01  9.999979E-01  1.308186E-03  0.000000E+00  1.212003E-03 -1.360394E-02  9.371177E-15 -2.045363E-01  0.000000E+00
  9.900000E-01  1.541355E-03  5.000000E-01  9.999979E-01  1.496278E-03  0.000000E+00 -7.382576E-04 -1.429389E-02 -2.203642E-13 -2.463050E-02  0.000000E+00
  9.900000E-01  1.727576E-03  5.000000E-01  9.999979E-01  1.684379E-03  0.000000E+00 -4.675721E-04  3.462551E-03 -2.335084E-13 -3.389832E-02  0.000000E+00
  9.900000E-01  1.913796E-03  5.000000E-01  9.999979E-01  1.872481E-03  0.000000E+00  8.128641E-04  3.548643E-03  3.183267E-14 -1.578098E-01  0.000000E+00
  9.900000E-01  2.100017E-03  5.000000E-01  9.999979E-01  2.060582E-03  0.000000E+00  8.234202E-03 -4.608073E-03  1.384316E-13 -5.971492E-02  0.000000E+00
  9.900000E-01  2.100017E-03  5.000000E-01  9.999979E-01  2.060582E-03  0.000000E+00  8.234202E-03 -4.608073E-03  1.384316E-13 -5.971492E-02  0.000000E+00
  9.897920E-01  2.143405E-03  5.000000E-01  9.997878E-01  2.104408E-03  0.000000E+00  9.101045E-03 -2.732236E-03  5.181674E-14  8.422264E-02  0.000000E+00
  9.891660E-01  2.273477E-03  5.000000E-01  9.991555E-01  2.235794E-03  0.000000E+00  3.397487E-03 -6.166187E-04  1.007453E-14  1.255584E-02  0.000000E+00
  9.881230E-01  2.489977E-03  5.000000E-01  9.981019E-01  2.454480E-03  0.000000E+00  3.262905E-03 -6.721195E-04 -8.430085E-15  4.121411E-05  0.000000E+00
  9.866580E-01  2.792497E-03  5.000000E-01  9.966221E-01  2.760055E-03  0.000000E+00  3.866998E-03 -8.049094E-04 -5.574590E-15  6.438501E-03  0.000000E+00
  9.847700E-01  3.180428E-03  5.000000E-01  9.947151E-01  3.151904E-03  0.000000E+00  4.040704E-03 -8.272509E-04 -1.415190E-15  4.534784E-03  0.000000E+00
  9.824550E-01  3.653014E-03  5.000000E-01  9.923767E-01  3.629263E-03  0.000000E+00  4.103955E-03 -8.334164E-04 -2.136154E-16 -8.863758E-04  0.000000E+00
  9.797070E-01  4.209306E-03  5.000000E-01  9.896009E-01  4.191173E-03  0.000000E+00  4.197015E-03 -8.457237E-04 -2.817949E-17 -6.900609E-03  0.000000E+00
  9.765220E-01  4.848191E-03  5.000000E-01  9.863838E-01  4.836509E-03  0.000000E+00  4.331401E-03 -8.641576E-04 -1.396459E-17 -1.385798E-02  0.000000E+00
  9.728930E-01  5.568387E-03  5.000000E-01  9.827181E-01  5.563979E-03  0.000000E+00  4.505789E-03 -8.887079E-04 -1.620168E-17 -2.183779E-02  0.000000E+00
  9.688130E-01  6.368424E-03  5.000000E-01  9.785969E-01  6.372095E-03  0.000000E+00  4.713957E-03 -9.180264E-04 -1.575360E-17 -3.064872E-02  0.000000E+00
  9.642740E-01  7.246694E-03  5.000000E-01  9.740121E-01  7.259235E-03  0.000000E+00  4.945921E-03 -9.498618E-04 -1.166973E-17 -4.010601E-02  0.000000E+00
  9.592670E-01  8.201443E-03  5.000000E-01  9.689545E-01  8.223625E-03  0.000000E+00  5.192734E-03 -9.823602E-04 -6.866020E-18 -5.013200E-02  0.000000E+00
  9.537850E-01  9.230769E-03  5.000000E-01  9.634171E-01  9.263347E-03  0.000000E+00  5.448017E-03 -1.014094E-03 -3.811239E-18 -6.056733E-02  0.000000E+00
  9.478160E-01  1.033266E-02  5.000000E-01  9.573879E-01  1.037637E-02  0.000000E+00  5.706763E-03 -1.044065E-03 -2.371494E-18 -7.130286E-02  0.000000E+00
  9.413520E-01  1.150512E-02  5.000000E-01  9.508586E-01  1.156066E-02  0.000000E+00  5.965200E-03 -1.071643E-03 -2.231700E-18 -8.223453E-02  0.000000E+00
  9.343800E-01  1.274613E-02  5.000000E-01  9.438162E-01  1.281421E-02  0.000000E+00  6.219973E-03 -1.096360E-03 -9.054863E-19 -9.323433E-02  0.000000E+00
  9.268920E-01  1.405354E-02  5.000000E-01  9.362526E-01  1.413482E-02  0.000000E+00  6.468039E-03 -1.117924E-03  1.896855E-18 -1.042364E-01  0.000000E+00
  9.188750E-01  1.542563E-02  5.000000E-01  9.281546E-01  1.552077E-02  0.000000E+00  6.706726E-03 -1.136170E-03  3.549609E-18 -1.151321E-01  0.000000E+00
  9.103190E-01  1.686072E-02  5.000000E-01  9.195122E-01  1.697035E-02  0.000000E+00  6.933425E-03 -1.151124E-03  4.009345E-18 -1.258629E-01  0.000000E+00
  9.012130E-01  1.835755E-02  5.000000E-01  9.103142E-01  1.848230E-02  0.000000E+00  7.145909E-03 -1.162866E-03  5.491319E-19 -1.363677E-01  0.000000E+00
  8.915460E-01  1.991523E-02  5.000000E-01  9.005496E-01  2.005570E-02  0.000000E+00  7.342390E-03 -1.171732E-03 -3.780116E-18 -1.466362E-01  0.000000E+00
  8.813080E-01  2.153360E-02  5.000000E-01  8.902082E-01  2.169043E-02  0.000000E+00  7.521818E-03 -1.178245E-03  3.226826E-18 -1.566776E-01  0.000000E+00
  8.704900E-01  2.321307E-02  5.000000E-01  8.792810E-01  2.338685E-02  0.000000E+00  7.683863E-03 -1.183040E-03  4.031400E-18 -1.665207E-01  0.000000E+00
  8.704900E-01  2.321307E-02  5.000000E-01  8.792810E-01  2.338685E-02  0.000000E+00  7.683863E-03 -1.183040E-03  4.031400E-18 -1.665207E-01  0.000000E+00
  8.590830E-01  2.495501E-02  5.000000E-01  8.677588E-01  2.514638E-02  0.000000E+00  7.829276E-03 -1.187109E-03  9.167618E-19 -1.762887E-01  0.000000E+00
  8.470810E-01  2.676201E-02  5.000000E-01  8.556356E-01  2.697164E-02  0.000000E+00  7.960651E-03 -1.191561E-03  4.524341E-18 -1.861739E-01  0.000000E+00
  8.344780E-01  2.863761E-02  5.000000E-01  8.429053E-01  2.886618E-02  0.000000E+00  8.082551E-03 -1.197445E-03  3.461145E-18 -1.964059E-01  0.000000E+00
  8.212700E-01  3.058570E-02  5.000000E-01  8.295639E-01  3.083394E-02  0.000000E+00  8.201911E-03 -1.205712E-03  4.442119E-18 -2.073837E-01  0.000000E+00
  8.074550E-01  3.260967E-02  5.000000E-01  8.156094E-01  3.287835E-02  0.000000E+00  8.328869E-03 -1.216933E-03  7.399848E-18 -2.196244E-01  0.000000E+00
  7.930350E-01  3.471063E-02  5.000000E-01  8.010438E-01  3.500052E-02  0.000000E+00  8.474612E-03 -1.230459E-03  1.136044E-17 -2.332857E-01  0.000000E+00
  7.780130E-01  3.688435E-02  5.000000E-01  7.858700E-01  3.719620E-02  0.000000E+00  8.645418E-03 -1.244313E-03  1.554378E-17 -2.479493E-01  0.000000E+00
  7.623950E-01  3.912043E-02  5.000000E-01  7.700943E-01  3.945486E-02  0.000000E+00  8.840291E-03 -1.257269E-03  1.679359E-17 -2.634313E-01  0.000000E+00
  7.461930E-01  4.140944E-02  5.000000E-01  7.537287E-01  4.176698E-02  0.000000E+00  9.055681E-03 -1.269028E-03  1.263700E-17 -2.798107E-01  0.000000E+00
  7.294180E-01  4.374144E-02  5.000000E-01  7.367843E-01  4.412253E-02  0.000000E+00  9.288275E-03 -1.278970E-03 -2.810557E-19 -2.969674E-01  0.000000E+00
  7.120900E-01  4.610512E-02  5.000000E-01  7.192813E-01  4.651009E-02  0.000000E+00  9.534524E-03 -1.286114E-03 -2.099792E-17 -3.147566E-01  0.000000E+00
  6.942280E-01  4.848806E-02  5.000000E-01  7.012389E-01  4.891709E-02  0.000000E+00  9.790913E-03 -1.289654E-03 -3.607330E-17 -3.330527E-01  0.000000E+00
  6.758590E-01  5.087735E-02  5.000000E-01  6.826844E-01  5.133051E-02  0.000000E+00  1.005424E-02 -1.289216E-03 -4.312193E-17 -3.517455E-01  0.000000E+00
  6.570120E-01  5.326013E-02  5.000000E-01  6.636471E-01  5.373735E-02  0.000000E+00  1.032186E-02 -1.284679E-03 -6.314863E-17 -3.707661E-01  0.000000E+00
  6.377220E-01  5.562402E-02  5.000000E-01  6.441623E-01  5.612512E-02  0.000000E+00  1.059220E-02 -1.276287E-03 -1.013745E-16 -3.901666E-01  0.000000E+00
  6.180260E-01  5.795782E-02  5.000000E-01  6.242674E-01  5.848249E-02  0.000000E+00  1.086551E-02 -1.264292E-03 -1.265883E-16 -4.100686E-01  0.000000E+00
  5.979670E-01  6.025004E-02  5.000000E-01  6.040058E-01  6.079786E-02  0.000000E+00  1.114400E-02 -1.248709E-03 -1.157467E-16 -4.306845E-01  0.000000E+00
  5.775910E-01  6.248884E-02  5.000000E-01  5.834240E-01  6.305927E-02  0.000000E+00  1.143155E-02 -1.229252E-03 -8.646111E-17 -4.522170E-01  0.000000E+00
  5.569470E-01  6.466146E-02  5.000000E-01  5.625715E-01  6.525382E-02  0.000000E+00  1.173203E-02 -1.204848E-03 -5.024484E-17 -4.745860E-01  0.000000E+00
  5.360860E-01  6.675208E-02  5.000000E-01  5.414999E-01  6.736556E-02  0.000000E+00  1.204693E-02 -1.174324E-03 -1.650224E-18 -4.976646E-01  0.000000E+00
  5.150640E-01  6.874513E-02  5.000000E-01  5.202656E-01  6.937873E-02  0.000000E+00  1.237576E-02 -1.137079E-03  6.593457E-17 -5.214851E-01  0.000000E+00
  4.939370E-01  7.062594E-02  5.000000E-01  4.989252E-01  7.127853E-02  0.000000E+00  1.271770E-02 -1.092518E-03  1.274859E-16 -5.460521E-01  0.000000E+00
  4.727610E-01  7.238067E-02  5.000000E-01  4.775354E-01  7.305099E-02  0.000000E+00  1.307198E-02 -1.039961E-03  1.087256E-16 -5.713500E-01  0.000000E+00
  5.770140E-06 -5.188384E-05  5.000000E-01  5.829536E-06 -1.130507E-04  0.000000E+00  3.752744E-03 -2.179771E-02  1.103740E-12  9.104420E-01  0.000000E+00
  9.104010E-05 -3.816590E-04  5.000000E-01  9.196063E-05 -4.461562E-04  0.000000E+00  1.999824E-02 -3.479665E-02  6.201719E-13  9.169070E-01  0.000000E+00
  4.796980E-04 -8.882119E-04  5.000000E-01  4.845435E-04 -9.578247E-04  0.000000E+00  3.856717E-02 -3.412589E-02 -8.869443E-13  6.046907E-01  0.000000E+00
  1.456590E-03 -1.466546E-03  5.000000E-01  1.471301E-03 -1.541999E-03  0.000000E+00  4.178978E-02 -1.998538E-02 -6.874154E-13  2.725530E-01  0.000000E+00
  3.096410E-03 -2.015902E-03  5.000000E-01  3.127681E-03 -2.096903E-03  0.000000E+00  3.422980E-02 -9.818551E-03  2.605009E-15  1.587130E-01  0.000000E+00
  5.335170E-03 -2.514989E-03  5.000000E-01  5.389050E-03 -2.601031E-03  0.000000E+00  2.736087E-02 -5.287158E-03  2.221054E-13  1.419603E-01  0.000000E+00
  8.129670E-03 -2.958133E-03  5.000000E-01  8.211772E-03 -3.048650E-03  0.000000E+00  2.316197E-02 -3.158579E-03  1.473647E-13  1.204781E-01  0.000000E+00
  1.145600E-02 -3.327574E-03  5.000000E-01  1.157169E-02 -3.421822E-03  0.000000E+00  1.998319E-02 -1.742737E-03  5.533545E-14  8.458717E-02  0.000000E+00
  1.529970E-02 -3.556819E-03  5.000000E-01  1.545421E-02 -3.653382E-03  0.000000E+00  1.658533E-02 -5.466711E-04  1.113103E-14  4.630456E-02  0.000000E+00
  1.962420E-02 -3.554093E-03  5.000000E-01  1.982238E-02 -3.650628E-03  0.000000E+00  1.304601E-02  2.391487E-04 -1.452552E-15  3.834508E-02  0.000000E+00
  2.439810E-02 -3.342282E-03  5.000000E-01  2.464449E-02 -3.436678E-03  0.000000E+00  1.066048E-02  4.665469E-04 -2.599110E-15  9.147095E-02  0.000000E+00
  2.966100E-02 -3.112550E-03  5.000000E-01  2.996054E-02 -3.204626E-03  0.000000E+00  1.023313E-02  3.997276E-04 -1.395924E-15  1.569085E-01  0.000000E+00
  3.543640E-02 -2.928401E-03  5.000000E-01  3.579427E-02 -3.018617E-03  0.000000E+00  1.097382E-02  3.136920E-04 -4.555438E-16  1.751163E-01  0.000000E+00
  4.172970E-02 -2.770802E-03  5.000000E-01  4.215112E-02 -2.859427E-03  0.000000E+00  1.173467E-02  2.903960E-04 -1.105095E-16  1.612683E-01  0.000000E+00
  4.854440E-02 -2.601256E-03  5.000000E-01  4.903464E-02 -2.688169E-03  0.000000E+00  1.205655E-02  3.418957E-04 -8.803379E-17  1.425318E-01  0.000000E+00
  5.588220E-02 -2.366011E-03  5.000000E-01  5.644655E-02 -2.450548E-03  0.000000E+00  1.200475E-02  4.328290E-04 -1.345472E-16  1.305836E-01  0.000000E+00
  6.375220E-02 -2.048465E-03  5.000000E-01  6.439603E-02 -2.129795E-03  0.000000E+00  1.181377E-02  5.095667E-04 -1.584320E-16  1.285337E-01  0.000000E+00
  7.217040E-02 -1.660922E-03  5.000000E-01  7.289924E-02 -1.738339E-03  0.000000E+00  1.167001E-02  5.527821E-04 -1.571070E-16  1.318392E-01  0.000000E+00
  8.115500E-02 -1.224093E-03  5.000000E-01  8.197457E-02 -1.297098E-03  0.000000E+00  1.162308E-02  5.770357E-04 -1.424764E-16  1.339894E-01  0.000000E+00
  9.072040E-02 -7.407648E-04  5.000000E-01  9.163657E-02 -8.088886E-04  0.000000E+00  1.162284E-02  6.034210E-04 -1.224510E-16  1.319127E-01  0.000000E+00
  1.008780E-01 -1.994436E-04  5.000000E-01  1.018968E-01 -2.621006E-04  0.000000E+00  1.160975E-02  6.394197E-04 -9.426660E-17  1.276858E-01  0.000000E+00
  1.116380E-01  4.129225E-04  5.000000E-01  1.127654E-01  3.564497E-04  0.000000E+00  1.155398E-02  6.850117E-04 -6.433750E-17  1.237367E-01  0.000000E+00
  1.230100E-01  1.114431E-03  5.000000E-01  1.242523E-01  1.065042E-03  0.000000E+00  1.143709E-02  7.397392E-04 -8.781944E-17  1.207803E-01  0.000000E+00
  1.350030E-01  1.926404E-03  5.000000E-01  1.363664E-01  1.885215E-03  0.000000E+00  1.123832E-02  8.014716E-04 -2.334348E-17  1.194039E-01  0.000000E+00
  1.350030E-01  1.926404E-03  5.000000E-01  1.363664E-01  1.885215E-03  0.000000E+00  1.123832E-02  8.014716E-04 -2.334348E-17  1.194039E-01  0.000000E+00
  1.476220E-01  2.872893E-03  5.000000E-01  1.491128E-01  2.841263E-03  0.000000E+00  1.094063E-02  8.661976E-04  7.033152E-17  1.205582E-01  0.000000E+00
  1.608730E-01  3.979163E-03  5.000000E-01  1.624976E-01  3.958706E-03  0.000000E+00  1.054201E-02  9.282706E-04  6.215863E-17  1.253832E-01  0.000000E+00
  1.747560E-01  5.268036E-03  5.000000E-01  1.765208E-01  5.260594E-03  0.000000E+00  1.006275E-02  9.799578E-04  3.502917E-17  1.347261E-01  0.000000E+00
  1.892730E-01  6.750979E-03  5.000000E-01  1.911844E-01  6.758513E-03  0.000000E+00  9.546239E-03  1.009719E-03 -1.193476E-17  1.488913E-01  0.000000E+00
  2.044180E-01  8.412338E-03  5.000000E-01  2.064824E-01  8.436651E-03  0.000000E+00  9.060320E-03  1.004017E-03 -1.575402E-17  1.688158E-01  0.000000E+00
  2.201880E-01  1.018012E-02  5.000000E-01  2.224116E-01  1.022228E-02  0.000000E+00  8.665897E-03  9.650068E-04  2.095208E-17  1.919369E-01  0.000000E+00
  2.365750E-01  1.199001E-02  5.000000E-01  2.389641E-01  1.205045E-02  0.000000E+00  8.370536E-03  9.109213E-04  4.015342E-17  2.122203E-01  0.000000E+00
  2.535710E-01  1.380917E-02  5.000000E-01  2.561318E-01  1.388799E-02  0.000000E+00  8.144874E-03  8.532617E-04  4.017715E-17  2.280635E-01  0.000000E+00
  2.711570E-01  1.561083E-02  5.000000E-01  2.738954E-01  1.570784E-02  0.000000E+00  7.966579E-03  7.938328E-04  3.990228E-17  2.414019E-01  0.000000E+00
  2.893100E-01  1.736860E-02  5.000000E-01  2.922317E-01  1.748336E-02  0.000000E+00  7.829756E-03  7.323408E-04  3.281908E-17  2.534143E-01  0.000000E+00
  3.080020E-01  1.905434E-02  5.000000E-01  3.111125E-01  1.918612E-02  0.000000E+00  7.730621E-03  6.699516E-04  5.451703E-18  2.637664E-01  0.000000E+00
  3.271950E-01  2.064879E-02  5.000000E-01  3.304993E-01  2.079668E-02  0.000000E+00  7.659987E-03  6.083732E-04 -2.195761E-17  2.720533E-01  0.000000E+00
  3.468470E-01  2.213719E-02  5.000000E-01  3.503498E-01  2.230011E-02  0.000000E+00  7.607354E-03  5.485885E-04 -2.423578E-17  2.785972E-01  0.000000E+00
  3.669110E-01  2.351082E-02  5.000000E-01  3.706164E-01  2.368761E-02  0.000000E+00  7.564197E-03  4.915373E-04 -1.793817E-17  2.837342E-01  0.000000E+00
  3.873360E-01  2.476648E-02  5.000000E-01  3.912477E-01  2.495595E-02  0.000000E+00  7.524856E-03  4.372558E-04 -2.531391E-17  2.878250E-01  0.000000E+00
  4.080670E-01  2.590109E-02  5.000000E-01  4.121880E-01  2.610202E-02  0.000000E+00  7.487802E-03  3.844769E-04 -5.290685E-17  2.913597E-01  0.000000E+00
  4.290470E-01  2.690723E-02  5.000000E-01  4.333799E-01  2.711832E-02  0.000000E+00  7.454514E-03  3.321328E-04 -8.832336E-17  2.945209E-01  0.000000E+00
  4.502140E-01  2.777791E-02  5.000000E-01  4.547607E-01  2.799779E-02  0.000000E+00  7.426522E-03  2.801241E-04 -1.100557E-16  2.971471E-01  0.000000E+00
  4.715070E-01  2.850799E-02  5.000000E-01  4.762687E-01  2.873525E-02  0.000000E+00  7.404626E-03  2.285726E-04 -1.106348E-16  2.991531E-01  0.000000E+00
  4.928620E-01  2.909396E-02  5.000000E-01  4.978393E-01  2.932713E-02  0.000000E+00  7.389939E-03  1.772770E-04 -7.220621E-17  3.005939E-01  0.000000E+00
  5.142140E-01  2.953245E-02  5.000000E-01  5.194070E-01  2.977005E-02  0.000000E+00  7.384493E-03  1.256368E-04  6.715497E-18  3.015566E-01  0.000000E+00
  5.355000E-01  2.981966E-02  5.000000E-01  5.409079E-01  3.006016E-02  0.000000E+00  7.390353E-03  7.328678E-05 -3.904582E-19  3.019979E-01  0.000000E+00
  5.566560E-01  2.995385E-02  5.000000E-01  5.622776E-01  3.019571E-02  0.000000E+00  7.408127E-03  2.058067E-05  1.210064E-16  3.017616E-01  0.000000E+00
  4.727610E-01  7.238067E-02  5.000000E-01  4.775354E-01  7.305099E-02  0.000000E+00  1.307198E-02 -1.039961E-03  1.087256E-16 -5.713500E-01  0.000000E+00
  4.515970E-01  7.399623E-02  5.000000E-01  4.561576E-01  7.468286E-02  0.000000E+00  1.343794E-02 -9.786770E-04  8.838563E-17 -5.973146E-01  0.000000E+00
  4.305020E-01  7.546069E-02  5.000000E-01  4.348496E-01  7.616211E-02  0.000000E+00  1.381520E-02 -9.080820E-04  1.054510E-16 -6.240032E-01  0.000000E+00
  4.095340E-01  7.676353E-02  5.000000E-01  4.136698E-01  7.747811E-02  0.000000E+00  1.420551E-02 -8.281179E-04  7.905062E-17 -6.519463E-01  0.000000E+00
  3.887520E-01  7.789709E-02  5.000000E-01  3.926780E-01  7.862312E-02  0.000000E+00  1.461545E-02 -7.375986E-04  3.867549E-17 -6.817499E-01  0.000000E+00
  3.682080E-01  7.885216E-02  5.000000E-01  3.719265E-01  7.958783E-02  0.000000E+00  1.505435E-02 -6.327925E-04  1.241723E-17 -7.134752E-01  0.000000E+00
  3.479570E-01  7.961574E-02  5.000000E-01  3.514710E-01  8.035912E-02  0.000000E+00  1.552829E-02 -5.088754E-04 -6.673644E-20 -7.467087E-01  0.000000E+00
  3.280470E-01  8.017294E-02  5.000000E-01  3.313599E-01  8.092195E-02  0.000000E+00  1.603741E-02 -3.626990E-04 -7.226347E-18 -7.811428E-01  0.000000E+00
  3.085240E-01  8.051288E-02  5.000000E-01  3.116397E-01  8.126532E-02  0.000000E+00  1.657913E-02 -1.928252E-04 -1.051448E-17 -8.167263E-01  0.000000E+00
  2.894320E-01  8.062847E-02  5.000000E-01  2.923549E-01  8.138209E-02  0.000000E+00  1.715222E-02  3.575463E-06  1.562720E-17 -8.535275E-01  0.000000E+00
  2.708110E-01  8.051236E-02  5.000000E-01  2.735459E-01  8.126480E-02  0.000000E+00  1.776213E-02  2.310771E-04  9.308924E-17 -8.930358E-01  0.000000E+00
  2.526960E-01  8.015714E-02  5.000000E-01  2.552479E-01  8.090599E-02  0.000000E+00  1.843707E-02  4.969245E-04  2.045647E-16 -9.389350E-01  0.000000E+00
  2.351200E-01  7.955723E-02  5.000000E-01  2.374944E-01  8.030003E-02  0.000000E+00  1.923409E-02  8.268187E-04  3.081739E-16 -9.918332E-01  0.000000E+00
  2.181120E-01  7.868212E-02  5.000000E-01  2.203147E-01  7.941608E-02  0.000000E+00  2.019138E-02  1.266696E-03  3.785842E-16 -1.045613E+00  0.000000E+00
  2.017010E-01  7.747725E-02  5.000000E-01  2.037380E-01  7.819903E-02  0.000000E+00  2.127528E-02  1.844132E-03  4.120169E-16 -1.094555E+00  0.000000E+00
  1.859190E-01  7.591036E-02  5.000000E-01  1.877966E-01  7.661632E-02  0.000000E+00  2.240783E-02  2.559825E-03  3.820070E-16 -1.135797E+00  0.000000E+00
  1.707920E-01  7.396701E-02  5.000000E-01  1.725168E-01  7.465335E-02  0.000000E+00  2.350970E-02  3.411455E-03  2.393968E-16 -1.165041E+00  0.000000E+00
  1.563470E-01  7.164160E-02  5.000000E-01  1.579259E-01  7.230446E-02  0.000000E+00  2.449881E-02  4.389954E-03 -4.704995E-18 -1.176953E+00  0.000000E+00
  1.426070E-01  6.893924E-02  5.000000E-01  1.440472E-01  6.957480E-02  0.000000E+00  2.528833E-02  5.463533E-03 -2.722365E-16 -1.167627E+00  0.000000E+00
  1.295900E-01  6.588203E-02  5.000000E-01  1.308987E-01  6.648672E-02  0.000000E+00  2.580461E-02  6.576327E-03 -4.816281E-16 -1.136068E+00  0.000000E+00
  1.173060E-01  6.250999E-02  5.000000E-01  1.184907E-01  6.308062E-02  0.000000E+00  2.600908E-02  7.667163E-03 -5.757003E-16 -1.083329E+00  0.000000E+00
  1.057600E-01  5.887336E-02  5.000000E-01  1.068281E-01  5.940727E-02  0.000000E+00  2.590230E-02  8.684579E-03 -6.055181E-16 -1.011634E+00  0.000000E+00
  9.495290E-02  5.502875E-02  5.000000E-01  9.591182E-02  5.552384E-02  0.000000E+00  2.551814E-02  9.588591E-03 -4.771413E-16 -9.246388E-01  0.000000E+00
  8.487680E-02  5.103730E-02  5.000000E-01  8.573396E-02  5.149208E-02  0.000000E+00  2.491404E-02  1.035713E-02 -4.074597E-16 -8.256093E-01  0.000000E+00
  8.487680E-02  5.103730E-02  5.000000E-01  8.573396E-02  5.149208E-02  0.000000E+00  2.491404E-02  1.035713E-02 -4.074597E-16 -8.256093E-01  0.000000E+00
  7.552090E-02  4.696045E-02  5.000000E-01  7.628358E-02  4.737406E-02  0.000000E+00  2.414068E-02  1.097931E-02 -4.669875E-16 -7.157064E-01  0.000000E+00
  6.687020E-02  4.285670E-02  5.000000E-01  6.754551E-02  4.322886E-02  0.000000E+00  2.322228E-02  1.142522E-02 -4.487153E-16 -5.975931E-01  0.000000E+00
  5.889940E-02  3.878953E-02  5.000000E-01  5.949422E-02  3.912062E-02  0.000000E+00  2.219265E-02  1.165975E-02 -4.129575E-16 -4.783012E-01  0.000000E+00
  5.157140E-02  3.482329E-02  5.000000E-01  5.209221E-02  3.511433E-02  0.000000E+00  2.114120E-02  1.170748E-02 -3.532811E-16 -3.659951E-01  0.000000E+00
  4.484650E-02  3.101068E-02  5.000000E-01  4.529940E-02  3.126321E-02  0.000000E+00  2.020426E-02  1.168485E-02 -3.146761E-16 -2.648966E-01  0.000000E+00
  3.869820E-02  2.738195E-02  5.000000E-01  3.908901E-02  2.759784E-02  0.000000E+00  1.951256E-02  1.175359E-02 -3.062275E-16 -1.740190E-01  0.000000E+00
  3.311550E-02  2.394885E-02  5.000000E-01  3.344993E-02  2.413006E-02  0.000000E+00  1.912534E-02  1.202979E-02 -3.158663E-16 -8.810408E-02  0.000000E+00
  2.809130E-02  2.071873E-02  5.000000E-01  2.837499E-02  2.086732E-02  0.000000E+00  1.889788E-02  1.247622E-02 -3.178054E-16  8.194958E-03  0.000000E+00
  2.362330E-02  1.769555E-02  5.000000E-01  2.386187E-02  1.781361E-02  0.000000E+00  1.844021E-02  1.274043E-02 -3.647920E-16  1.250012E-01  0.000000E+00
  1.966610E-02  1.490326E-02  5.000000E-01  1.986471E-02  1.499313E-02  0.000000E+00  1.753878E-02  1.234058E-02 -6.100554E-16  2.365532E-01  0.000000E+00
  1.609460E-02  1.239501E-02  5.000000E-01  1.625714E-02  1.245954E-02  0.000000E+00  1.651134E-02  1.137250E-02 -9.027092E-16  3.156447E-01  0.000000E+00
  1.282740E-02  1.019012E-02  5.000000E-01  1.295694E-02  1.023238E-02  0.000000E+00  1.593138E-02  1.053716E-02  2.431407E-16  3.648408E-01  0.000000E+00
  9.860990E-03  8.269317E-03  5.000000E-01  9.960576E-03  8.292185E-03  0.000000E+00  1.620306E-02  1.047320E-02  6.721282E-15  4.021655E-01  0.000000E+00
  7.251350E-03  6.586998E-03  5.000000E-01  7.324582E-03  6.592876E-03  0.000000E+00  1.740990E-02  1.143475E-02  2.321061E-14  4.421783E-01  0.000000E+00
  5.038810E-03  5.110011E-03  5.000000E-01  5.089697E-03  5.100973E-03  0.000000E+00  1.944834E-02  1.348985E-02  4.363506E-14  4.875329E-01  0.000000E+00
  3.239710E-03  3.821463E-03  5.000000E-01  3.272429E-03  3.799413E-03  0.000000E+00  2.197441E-02  1.678710E-02  2.536245E-14  5.449062E-01  0.000000E+00
  1.861880E-03  2.712213E-03  5.000000E-01  1.880684E-03  2.678961E-03  0.000000E+00  2.372873E-02  2.113092E-02 -1.121133E-13  6.310534E-01  0.000000E+00
  9.013910E-04  1.781308E-03  5.000000E-01  9.104951E-04  1.738654E-03  0.000000E+00  2.171240E-02  2.431428E-02 -3.618010E-13  7.675793E-01  0.000000E+00
  3.295630E-04  1.037068E-03  5.000000E-01  3.328923E-04  9.868979E-04  0.000000E+00  1.312480E-02  1.967026E-02 -4.123330E-13  9.384027E-01  0.000000E+00
  7.194000E-05  4.946660E-04  5.000000E-01  7.266764E-05  4.390187E-04  0.000000E+00  2.332701E-03  4.329901E-04  1.322399E-13  1.022993E+00  0.000000E+00
  4.516100E-06  1.683518E-04  5.000000E-01  4.562832E-06  1.094091E-04  0.000000E+00 -2.265357E-03 -2.161635E-02  7.536302E-13  9.270052E-01  0.000000E+00
 -1.112850E-09  6.003657E-05  5.000000E-01  0.000000E+00  0.000000E+00  0.000000E+00 -1.308418E-03 -2.258351E-02  6.273570E-13  8.271679E-01  0.000000E+00