 Title = "ADflow Slice Data"
Variables =  "CoordinateX"  "CoordinateY"  "CoordinateZ"  "XoC"  "YoC"  "ZoC" "VelocityX" "VelocityY" "VelocityZ" "CoefPressure" "Mach" 
Zone T= "Slice_0001 None Absolute Regular z = 0.50000000"
 Nodes =          192  Elements=          184  ZONETYPE=FELINESEG
 DATAPACKING=POINT
  5.566560E-01  2.709632E-02  5.000000E-01  5.622776E-01  2.729787E-02  0.000000E+00  7.562790E-03  3.680857E-05  7.115146E-19  2.780467E-01  0.000000E+00
  5.776220E-01  2.715677E-02  5.000000E-01  5.834553E-01  2.735894E-02  0.000000E+00  7.485050E-03 -5.785350E-07  1.802719E-18  2.805747E-01  0.000000E+00
  5.983370E-01  2.709423E-02  5.000000E-01  6.043795E-01  2.729576E-02  0.000000E+00  7.451700E-03 -5.101634E-05  4.449452E-19  2.838903E-01  0.000000E+00
  6.187480E-01  2.687550E-02  5.000000E-01  6.249967E-01  2.707483E-02  0.000000E+00  7.485733E-03 -1.148054E-04 -3.969524E-19  2.857659E-01  0.000000E+00
  6.388030E-01  2.647544E-02  5.000000E-01  6.452542E-01  2.667073E-02  0.000000E+00  7.594276E-03 -1.920438E-04 -2.316653E-18  2.851862E-01  0.000000E+00
  6.584530E-01  2.587656E-02  5.000000E-01  6.651026E-01  2.606580E-02  0.000000E+00  7.771114E-03 -2.796715E-04 -3.974758E-18  2.821542E-01  0.000000E+00
  6.776550E-01  2.508150E-02  5.000000E-01  6.844986E-01  2.526271E-02  0.000000E+00  7.986341E-03 -3.619058E-04 -2.985971E-18  2.750463E-01  0.000000E+00
  6.963720E-01  2.416000E-02  5.000000E-01  7.034046E-01  2.433191E-02  0.000000E+00  8.187668E-03 -4.208679E-04 -1.263057E-18  2.637371E-01  0.000000E+00
  7.145680E-01  2.318653E-02  5.000000E-01  7.217843E-01  2.334860E-02  0.000000E+00  8.330588E-03 -4.525845E-04 -1.726546E-18  2.518164E-01  0.000000E+00
  7.322140E-01  2.221448E-02  5.000000E-01  7.396085E-01  2.236674E-02  0.000000E+00  8.396394E-03 -4.619088E-04 -1.695150E-18  2.420564E-01  0.000000E+00
  7.492860E-01  2.127715E-02  5.000000E-01  7.568530E-01  2.141994E-02  0.000000E+00  8.386917E-03 -4.556576E-04 -3.918708E-19  2.352635E-01  0.000000E+00
  7.657630E-01  2.039144E-02  5.000000E-01  7.734964E-01  2.052529E-02  0.000000E+00  8.316030E-03 -4.406319E-04  3.201307E-19  2.311127E-01  0.000000E+00
  7.816300E-01  1.956247E-02  5.000000E-01  7.895236E-01  1.968795E-02  0.000000E+00  8.209118E-03 -4.279073E-04  4.164857E-19  2.293808E-01  0.000000E+00
  7.968740E-01  1.877113E-02  5.000000E-01  8.049215E-01  1.888861E-02  0.000000E+00  8.111236E-03 -4.352310E-04  1.087309E-18  2.310393E-01  0.000000E+00
  8.114890E-01  1.796211E-02  5.000000E-01  8.196841E-01  1.807142E-02  0.000000E+00  8.069510E-03 -4.697180E-04 -3.794723E-19  2.342505E-01  0.000000E+00
  8.254710E-01  1.710680E-02  5.000000E-01  8.338073E-01  1.720747E-02  0.000000E+00  8.097897E-03 -5.221331E-04 -1.308694E-18  2.351142E-01  0.000000E+00
  8.388180E-01  1.620154E-02  5.000000E-01  8.472891E-01  1.629307E-02  0.000000E+00  8.180057E-03 -5.818573E-04 -1.501752E-18  2.328070E-01  0.000000E+00
  8.515320E-01  1.525572E-02  5.000000E-01  8.601315E-01  1.533770E-02  0.000000E+00  8.295490E-03 -6.424323E-04 -2.670640E-18  2.283913E-01  0.000000E+00
  8.636180E-01  1.428361E-02  5.000000E-01  8.723396E-01  1.435577E-02  0.000000E+00  8.430702E-03 -7.008279E-04 -1.856136E-18  2.227611E-01  0.000000E+00
  8.750810E-01  1.330036E-02  5.000000E-01  8.839183E-01  1.336259E-02  0.000000E+00  8.577080E-03 -7.557790E-04 -1.790448E-19  2.163020E-01  0.000000E+00
  8.859290E-01  1.231952E-02  5.000000E-01  8.948759E-01  1.237185E-02  0.000000E+00  8.728488E-03 -8.069150E-04 -4.167454E-19  2.092809E-01  0.000000E+00
  8.961710E-01  1.135226E-02  5.000000E-01  9.052213E-01  1.139482E-02  0.000000E+00  8.881008E-03 -8.542579E-04 -8.223361E-19  2.019218E-01  0.000000E+00
  9.058170E-01  1.040785E-02  5.000000E-01  9.149647E-01  1.044087E-02  0.000000E+00  9.032562E-03 -8.979854E-04  1.289398E-18  1.943764E-01  0.000000E+00
  9.148770E-01  9.493672E-03  5.000000E-01  9.241162E-01  9.517462E-03  0.000000E+00  9.182026E-03 -9.382572E-04  2.628036E-18  1.867276E-01  0.000000E+00
  9.148770E-01  9.493672E-03  5.000000E-01  9.241162E-01  9.517462E-03  0.000000E+00  9.182026E-03 -9.382572E-04  2.628036E-18  1.867276E-01  0.000000E+00
  9.233640E-01  8.615721E-03  5.000000E-01  9.326890E-01  8.630645E-03  0.000000E+00  9.328936E-03 -9.753946E-04  2.347224E-18  1.790671E-01  0.000000E+00
  9.312880E-01  7.778570E-03  5.000000E-01  9.406930E-01  7.785040E-03  0.000000E+00  9.473557E-03 -1.009823E-03  1.660959E-18  1.714748E-01  0.000000E+00
  9.386620E-01  6.985672E-03  5.000000E-01  9.481414E-01  6.984134E-03  0.000000E+00  9.616438E-03 -1.041918E-03  2.016074E-18  1.639808E-01  0.000000E+00
  9.454960E-01  6.239675E-03  5.000000E-01  9.550445E-01  6.230604E-03  0.000000E+00  9.757875E-03 -1.071919E-03  3.461547E-18  1.565896E-01  0.000000E+00
  9.518040E-01  5.542425E-03  5.000000E-01  9.614162E-01  5.526312E-03  0.000000E+00  9.898387E-03 -1.100147E-03  2.499242E-18  1.493402E-01  0.000000E+00
  9.575950E-01  4.895303E-03  5.000000E-01  9.672656E-01  4.872655E-03  0.000000E+00  1.003955E-02 -1.127039E-03  8.824428E-20  1.422541E-01  0.000000E+00
  9.628810E-01  4.299204E-03  5.000000E-01  9.726050E-01  4.270537E-03  0.000000E+00  1.018471E-02 -1.153129E-03 -6.079956E-19  1.353294E-01  0.000000E+00
  9.676710E-01  3.754726E-03  5.000000E-01  9.774434E-01  3.720559E-03  0.000000E+00  1.034010E-02 -1.179304E-03 -5.411791E-19  1.285884E-01  0.000000E+00
  9.719750E-01  3.262213E-03  5.000000E-01  9.817909E-01  3.223073E-03  0.000000E+00  1.051398E-02 -1.206567E-03 -1.293455E-18  1.220508E-01  0.000000E+00
  9.758020E-01  2.821803E-03  5.000000E-01  9.856565E-01  2.778215E-03  0.000000E+00  1.070931E-02 -1.235375E-03 -4.050015E-18  1.157484E-01  0.000000E+00
  9.791590E-01  2.433559E-03  5.000000E-01  9.890474E-01  2.386051E-03  0.000000E+00  1.090395E-02 -1.263457E-03 -4.044172E-18  1.095740E-01  0.000000E+00
  9.820540E-01  2.097415E-03  5.000000E-01  9.919717E-01  2.046511E-03  0.000000E+00  1.103215E-02 -1.284140E-03  5.723190E-18  1.038915E-01  0.000000E+00
  9.844930E-01  1.813287E-03  5.000000E-01  9.944353E-01  1.759515E-03  0.000000E+00  1.097266E-02 -1.280145E-03  2.913532E-17  9.958781E-02  0.000000E+00
  9.864820E-01  1.581032E-03  5.000000E-01  9.964444E-01  1.524914E-03  0.000000E+00  1.042255E-02 -1.207355E-03  4.801763E-17  9.310122E-02  0.000000E+00
  9.880240E-01  1.400561E-03  5.000000E-01  9.980019E-01  1.342620E-03  0.000000E+00  8.907994E-03 -1.051542E-03 -4.310534E-17  7.864570E-02  0.000000E+00
  9.891220E-01  1.271734E-03  5.000000E-01  9.991110E-01  1.212492E-03  0.000000E+00  8.192947E-03 -1.073168E-03 -5.164089E-16  9.485901E-02  0.000000E+00
  9.897810E-01  1.194467E-03  5.000000E-01  9.997767E-01  1.134445E-03  0.000000E+00  1.536104E-02 -6.287134E-04 -1.555877E-15  1.867440E-01  0.000000E+00
  9.900000E-01  1.168729E-03  5.000000E-01  9.999979E-01  1.108446E-03  0.000000E+00  1.285892E-02 -1.640848E-03 -2.020973E-15 -4.923217E-02  0.000000E+00
  9.900000E-01  1.354949E-03  5.000000E-01  9.999979E-01  1.296548E-03  0.000000E+00  1.190287E-03 -1.343235E-02 -1.273578E-15 -1.892872E-01  0.000000E+00
  9.900000E-01  1.541159E-03  5.000000E-01  9.999979E-01  1.484638E-03  0.000000E+00 -7.255048E-04 -1.418476E-02 -3.326956E-16 -1.238839E-02  0.000000E+00
  9.900000E-01  1.727380E-03  5.000000E-01  9.999979E-01  1.672740E-03  0.000000E+00 -4.544187E-04  3.143435E-03  4.392925E-16 -2.153672E-02  0.000000E+00
  9.900000E-01  1.913600E-03  5.000000E-01  9.999979E-01  1.860841E-03  0.000000E+00  7.884060E-04  3.314372E-03  1.574757E-15 -1.418681E-01  0.000000E+00
  9.900000E-01  2.099821E-03  5.000000E-01  9.999979E-01  2.048942E-03  0.000000E+00  7.948837E-03 -4.509550E-03  2.398139E-15 -4.632297E-02  0.000000E+00
  9.900000E-01  2.099821E-03  5.000000E-01  9.999979E-01  2.048942E-03  0.000000E+00  7.948837E-03 -4.509550E-03  2.398139E-15 -4.632297E-02  0.000000E+00
  9.897920E-01  2.143301E-03  5.000000E-01  9.997878E-01  2.092861E-03  0.000000E+00  8.733659E-03 -2.637013E-03  1.716715E-15  9.342026E-02  0.000000E+00
  9.891660E-01  2.273702E-03  5.000000E-01  9.991555E-01  2.224579E-03  0.000000E+00  3.177835E-03 -5.751928E-04  5.614640E-16  2.343311E-02  0.000000E+00
  9.881230E-01  2.490911E-03  5.000000E-01  9.981019E-01  2.443982E-03  0.000000E+00  3.046850E-03 -6.297006E-04  5.121163E-17  1.093023E-02  0.000000E+00
  9.866580E-01  2.794767E-03  5.000000E-01  9.966222E-01  2.750906E-03  0.000000E+00  3.640664E-03 -7.619500E-04 -5.490333E-17  1.712989E-02  0.000000E+00
  9.847700E-01  3.184993E-03  5.000000E-01  9.947151E-01  3.145073E-03  0.000000E+00  3.810831E-03 -7.855705E-04 -3.807771E-17  1.530851E-02  0.000000E+00
  9.824550E-01  3.661259E-03  5.000000E-01  9.923767E-01  3.626148E-03  0.000000E+00  3.868351E-03 -7.925409E-04 -1.302074E-17  9.992297E-03  0.000000E+00
  9.797070E-01  4.223115E-03  5.000000E-01  9.896010E-01  4.193678E-03  0.000000E+00  3.952579E-03 -8.054566E-04 -2.059351E-18  4.052229E-03  0.000000E+00
  9.765220E-01  4.870022E-03  5.000000E-01  9.863838E-01  4.847119E-03  0.000000E+00  4.076093E-03 -8.246179E-04  1.186535E-18 -2.850331E-03  0.000000E+00
  9.728930E-01  5.601331E-03  5.000000E-01  9.827181E-01  5.585813E-03  0.000000E+00  4.238516E-03 -8.502323E-04  1.295476E-18 -1.082162E-02  0.000000E+00
  9.688130E-01  6.416239E-03  5.000000E-01  9.785969E-01  6.408950E-03  0.000000E+00  4.434907E-03 -8.812304E-04 -1.333640E-18 -1.970532E-02  0.000000E+00
  9.642740E-01  7.313826E-03  5.000000E-01  9.740121E-01  7.315602E-03  0.000000E+00  4.656671E-03 -9.156171E-04 -2.800221E-18 -2.934866E-02  0.000000E+00
  9.592670E-01  8.293011E-03  5.000000E-01  9.689545E-01  8.304677E-03  0.000000E+00  4.896131E-03 -9.517166E-04 -1.146890E-18 -3.970608E-02  0.000000E+00
  9.537850E-01  9.352546E-03  5.000000E-01  9.634172E-01  9.374911E-03  0.000000E+00  5.148029E-03 -9.882073E-04  1.297447E-18 -5.064731E-02  0.000000E+00
  9.478160E-01  1.049094E-02  5.000000E-01  9.573879E-01  1.052480E-02  0.000000E+00  5.408423E-03 -1.024131E-03  1.736052E-18 -6.209476E-02  0.000000E+00
  9.413520E-01  1.170663E-02  5.000000E-01  9.508586E-01  1.175277E-02  0.000000E+00  5.674621E-03 -1.058839E-03  1.188331E-18 -7.397212E-02  0.000000E+00
  9.343800E-01  1.299779E-02  5.000000E-01  9.438162E-01  1.305697E-02  0.000000E+00  5.944342E-03 -1.091780E-03  4.373842E-19 -8.617292E-02  0.000000E+00
  9.268920E-01  1.436220E-02  5.000000E-01  9.362526E-01  1.443516E-02  0.000000E+00  6.215494E-03 -1.122493E-03 -5.916299E-19 -9.863805E-02  0.000000E+00
  9.188750E-01  1.579769E-02  5.000000E-01  9.281546E-01  1.588514E-02  0.000000E+00  6.486163E-03 -1.150538E-03 -1.965660E-19 -1.112607E-01  0.000000E+00
  9.103190E-01  1.730167E-02  5.000000E-01  9.195122E-01  1.740431E-02  0.000000E+00  6.754331E-03 -1.175569E-03  9.708615E-19 -1.239734E-01  0.000000E+00
  9.012130E-01  1.887139E-02  5.000000E-01  9.103143E-01  1.898989E-02  0.000000E+00  7.018009E-03 -1.197186E-03 -3.832883E-19 -1.366723E-01  0.000000E+00
  8.915460E-01  2.050374E-02  5.000000E-01  9.005496E-01  2.063872E-02  0.000000E+00  7.275044E-03 -1.215108E-03 -9.831475E-19 -1.492882E-01  0.000000E+00
  8.813080E-01  2.219559E-02  5.000000E-01  8.902082E-01  2.234765E-02  0.000000E+00  7.523173E-03 -1.229115E-03  5.478071E-19 -1.617233E-01  0.000000E+00
  8.704900E-01  2.394341E-02  5.000000E-01  8.792810E-01  2.411313E-02  0.000000E+00  7.759485E-03 -1.238983E-03 -1.845128E-19 -1.738399E-01  0.000000E+00
  8.704900E-01  2.394341E-02  5.000000E-01  8.792810E-01  2.411313E-02  0.000000E+00  7.759485E-03 -1.238983E-03 -1.845128E-19 -1.738399E-01  0.000000E+00
  8.590830E-01  2.574385E-02  5.000000E-01  8.677588E-01  2.593175E-02  0.000000E+00  7.980738E-03 -1.244841E-03 -1.242323E-18 -1.856024E-01  0.000000E+00
  8.470810E-01  2.759419E-02  5.000000E-01  8.556356E-01  2.780077E-02  0.000000E+00  8.184476E-03 -1.247106E-03 -4.689697E-20 -1.970071E-01  0.000000E+00
  8.344780E-01  2.949244E-02  5.000000E-01  8.429053E-01  2.971820E-02  0.000000E+00  8.368675E-03 -1.246353E-03  7.760312E-19 -2.079544E-01  0.000000E+00
  8.212700E-01  3.143778E-02  5.000000E-01  8.295639E-01  3.168318E-02  0.000000E+00  8.530793E-03 -1.243556E-03  1.174394E-18 -2.183170E-01  0.000000E+00
  8.074550E-01  3.343144E-02  5.000000E-01  8.156094E-01  3.369697E-02  0.000000E+00  8.669180E-03 -1.240630E-03  3.234908E-18 -2.282500E-01  0.000000E+00
  7.930350E-01  3.547810E-02  5.000000E-01  8.010438E-01  3.576430E-02  0.000000E+00  8.788614E-03 -1.240699E-03  4.613877E-18 -2.386679E-01  0.000000E+00
  7.780130E-01  3.758688E-02  5.000000E-01  7.858701E-01  3.789438E-02  0.000000E+00  8.905476E-03 -1.246343E-03  2.503317E-18 -2.508305E-01  0.000000E+00
  7.623950E-01  3.976570E-02  5.000000E-01  7.700943E-01  4.009520E-02  0.000000E+00  9.041701E-03 -1.255993E-03  1.372680E-18 -2.648563E-01  0.000000E+00
  7.461930E-01  4.200699E-02  5.000000E-01  7.537287E-01  4.235913E-02  0.000000E+00  9.211056E-03 -1.266007E-03  1.807587E-19 -2.802416E-01  0.000000E+00
  7.294180E-01  4.429781E-02  5.000000E-01  7.367843E-01  4.467308E-02  0.000000E+00  9.416276E-03 -1.274568E-03 -5.443414E-19 -2.969038E-01  0.000000E+00
  7.120900E-01  4.662270E-02  5.000000E-01  7.192813E-01  4.702145E-02  0.000000E+00  9.653713E-03 -1.280101E-03 -5.245448E-19 -3.145426E-01  0.000000E+00
  6.942280E-01  4.896381E-02  5.000000E-01  7.012389E-01  4.938621E-02  0.000000E+00  9.914000E-03 -1.280607E-03 -1.583761E-18 -3.325497E-01  0.000000E+00
  6.758590E-01  5.130278E-02  5.000000E-01  6.826844E-01  5.174879E-02  0.000000E+00  1.018279E-02 -1.274592E-03 -8.362419E-19 -3.501835E-01  0.000000E+00
  6.570120E-01  5.362258E-02  5.000000E-01  6.636471E-01  5.409203E-02  0.000000E+00  1.044410E-02 -1.262436E-03 -1.191627E-18 -3.670529E-01  0.000000E+00
  6.377220E-01  5.591268E-02  5.000000E-01  6.441623E-01  5.640525E-02  0.000000E+00  1.068730E-02 -1.247134E-03 -8.664672E-19 -3.836672E-01  0.000000E+00
  6.180260E-01  5.817186E-02  5.000000E-01  6.242674E-01  5.868725E-02  0.000000E+00  1.091328E-02 -1.231392E-03  3.899507E-19 -4.007442E-01  0.000000E+00
  5.979670E-01  6.039842E-02  5.000000E-01  6.040058E-01  6.093629E-02  0.000000E+00  1.113249E-02 -1.215910E-03 -9.212803E-19 -4.188493E-01  0.000000E+00
  5.775910E-01  6.258811E-02  5.000000E-01  5.834240E-01  6.314809E-02  0.000000E+00  1.136006E-02 -1.200407E-03 -4.297471E-19 -4.386112E-01  0.000000E+00
  5.569470E-01  6.473291E-02  5.000000E-01  5.625715E-01  6.531455E-02  0.000000E+00  1.161156E-02 -1.183265E-03  1.477291E-18 -4.602757E-01  0.000000E+00
  5.360860E-01  6.681800E-02  5.000000E-01  5.414999E-01  6.742070E-02  0.000000E+00  1.189733E-02 -1.161611E-03  4.463967E-19 -4.836078E-01  0.000000E+00
  5.150640E-01  6.882298E-02  5.000000E-01  5.202656E-01  6.944593E-02  0.000000E+00  1.221947E-02 -1.132694E-03 -4.117911E-19 -5.082864E-01  0.000000E+00
  4.939370E-01  7.072610E-02  5.000000E-01  4.989252E-01  7.136827E-02  0.000000E+00  1.257351E-02 -1.094541E-03 -1.147454E-18 -5.340466E-01  0.000000E+00
  4.727610E-01  7.250693E-02  5.000000E-01  4.775354E-01  7.316709E-02  0.000000E+00  1.295107E-02 -1.045548E-03 -1.238238E-18 -5.604325E-01  0.000000E+00
  5.770140E-06 -4.044042E-05  5.000000E-01  5.829536E-06 -1.129338E-04  0.000000E+00  5.947385E-03 -3.601189E-02 -4.294014E-13  8.623927E-01  0.000000E+00
  9.104010E-05 -3.690775E-04  5.000000E-01  9.196063E-05 -4.448898E-04  0.000000E+00  2.518088E-02 -4.578212E-02 -3.746457E-13  8.286671E-01  0.000000E+00
  4.796980E-04 -8.707653E-04  5.000000E-01  4.845435E-04 -9.516440E-04  0.000000E+00  4.419222E-02 -3.935693E-02 -2.505533E-13  4.621441E-01  0.000000E+00
  1.456590E-03 -1.436756E-03  5.000000E-01  1.471301E-03 -1.523351E-03  0.000000E+00  4.463361E-02 -2.097885E-02 -1.209490E-13  1.266147E-01  0.000000E+00
  3.096410E-03 -1.964750E-03  5.000000E-01  3.127681E-03 -2.056677E-03  0.000000E+00  3.456807E-02 -9.492235E-03 -3.716507E-14  4.423984E-02  0.000000E+00
  5.335170E-03 -2.433619E-03  5.000000E-01  5.389050E-03 -2.530281E-03  0.000000E+00  2.673292E-02 -4.801807E-03 -1.802166E-15  5.532638E-02  0.000000E+00
  8.129670E-03 -2.837789E-03  5.000000E-01  8.211772E-03 -2.938532E-03  0.000000E+00  2.235936E-02 -2.733708E-03  5.887592E-15  5.034064E-02  0.000000E+00
  1.145600E-02 -3.159621E-03  5.000000E-01  1.157169E-02 -3.263615E-03  0.000000E+00  1.919359E-02 -1.398925E-03  4.103039E-15  2.459774E-02  0.000000E+00
  1.529970E-02 -3.333148E-03  5.000000E-01  1.545421E-02 -3.438894E-03  0.000000E+00  1.581335E-02 -2.953396E-04  1.512451E-15 -4.982754E-03  0.000000E+00
  1.962420E-02 -3.268055E-03  5.000000E-01  1.982238E-02 -3.373144E-03  0.000000E+00  1.231353E-02  4.000782E-04  2.233298E-16 -3.783402E-03  0.000000E+00
  2.439810E-02 -2.988256E-03  5.000000E-01  2.464449E-02 -3.090519E-03  0.000000E+00  1.001745E-02  5.814861E-04 -1.081519E-16  5.794763E-02  0.000000E+00
  2.966100E-02 -2.683390E-03  5.000000E-01  2.996054E-02 -2.782574E-03  0.000000E+00  9.706242E-03  5.188196E-04 -9.288680E-17  1.302046E-01  0.000000E+00
  3.543640E-02 -2.416200E-03  5.000000E-01  3.579427E-02 -2.512686E-03  0.000000E+00  1.054990E-02  4.534396E-04 -3.278150E-17  1.536492E-01  0.000000E+00
  4.172970E-02 -2.167893E-03  5.000000E-01  4.215112E-02 -2.261872E-03  0.000000E+00  1.137762E-02  4.449749E-04 -2.628151E-18  1.441458E-01  0.000000E+00
  4.854440E-02 -1.900659E-03  5.000000E-01  4.903465E-02 -1.991939E-03  0.000000E+00  1.172996E-02  4.993840E-04  4.067669E-18  1.295121E-01  0.000000E+00
  5.588220E-02 -1.561922E-03  5.000000E-01  5.644655E-02 -1.649780E-03  0.000000E+00  1.168334E-02  5.840931E-04  3.801071E-18  1.216185E-01  0.000000E+00
  6.375220E-02 -1.135973E-03  5.000000E-01  6.439603E-02 -1.219530E-03  0.000000E+00  1.148219E-02  6.512244E-04  2.373272E-18  1.234483E-01  0.000000E+00
  7.217040E-02 -6.357388E-04  5.000000E-01  7.289924E-02 -7.142441E-04  0.000000E+00  1.131772E-02  6.851385E-04 -1.149558E-19  1.304196E-01  0.000000E+00
  8.115500E-02 -8.259745E-05  5.000000E-01  8.197458E-02 -1.555166E-04  0.000000E+00  1.124191E-02  7.006234E-04 -1.052248E-18  1.361448E-01  0.000000E+00
  9.072040E-02  5.193987E-04  5.000000E-01  9.163658E-02  4.525591E-04  0.000000E+00  1.120698E-02  7.170135E-04 -6.856415E-19  1.376970E-01  0.000000E+00
  1.008780E-01  1.179783E-03  5.000000E-01  1.018968E-01  1.119613E-03  0.000000E+00  1.115559E-02  7.403370E-04  3.645119E-19  1.371727E-01  0.000000E+00
  1.116380E-01  1.908999E-03  5.000000E-01  1.127654E-01  1.856193E-03  0.000000E+00  1.105991E-02  7.697921E-04  3.568215E-19  1.369607E-01  0.000000E+00
  1.230100E-01  2.721631E-03  5.000000E-01  1.242523E-01  2.677032E-03  0.000000E+00  1.090422E-02  8.043420E-04  7.090551E-19  1.377327E-01  0.000000E+00
  1.350030E-01  3.634336E-03  5.000000E-01  1.363664E-01  3.598954E-03  0.000000E+00  1.067231E-02  8.415443E-04  2.738201E-18  1.399926E-01  0.000000E+00
  1.350030E-01  3.634336E-03  5.000000E-01  1.363664E-01  3.598954E-03  0.000000E+00  1.067231E-02  8.415443E-04  2.738201E-18  1.399926E-01  0.000000E+00
  1.476220E-01  4.664964E-03  5.000000E-01  1.491128E-01  4.639990E-03  0.000000E+00  1.035382E-02  8.776102E-04  3.223916E-18  1.445429E-01  0.000000E+00
  1.608730E-01  5.830695E-03  5.000000E-01  1.624976E-01  5.817494E-03  0.000000E+00  9.955003E-03  9.079364E-04  2.854493E-18  1.522957E-01  0.000000E+00
  1.747560E-01  7.143992E-03  5.000000E-01  1.765208E-01  7.144054E-03  0.000000E+00  9.504394E-03  9.267883E-04  3.042697E-18  1.637938E-01  0.000000E+00
  1.892730E-01  8.603755E-03  5.000000E-01  1.911844E-01  8.618558E-03  0.000000E+00  9.051490E-03  9.254099E-04  2.755799E-18  1.789932E-01  0.000000E+00
  2.044180E-01  1.018048E-02  5.000000E-01  2.064824E-01  1.021120E-02  0.000000E+00  8.665653E-03  8.930235E-04  1.095777E-18  1.984380E-01  0.000000E+00
  2.201880E-01  1.178991E-02  5.000000E-01  2.224117E-01  1.183689E-02  0.000000E+00  8.403985E-03  8.327271E-04  1.524979E-18  2.192789E-01  0.000000E+00
  2.365750E-01  1.336143E-02  5.000000E-01  2.389641E-01  1.342428E-02  0.000000E+00  8.266149E-03  7.619477E-04  3.247326E-18  2.355338E-01  0.000000E+00
  2.535710E-01  1.486212E-02  5.000000E-01  2.561318E-01  1.494012E-02  0.000000E+00  8.210771E-03  6.917683E-04  1.397931E-18  2.458262E-01  0.000000E+00
  2.711570E-01  1.627260E-02  5.000000E-01  2.738954E-01  1.636485E-02  0.000000E+00  8.198401E-03  6.248184E-04 -1.271002E-18  2.522957E-01  0.000000E+00
  2.893100E-01  1.758428E-02  5.000000E-01  2.922317E-01  1.768978E-02  0.000000E+00  8.202314E-03  5.629560E-04 -1.798498E-19  2.565110E-01  0.000000E+00
  3.080020E-01  1.879942E-02  5.000000E-01  3.111125E-01  1.891719E-02  0.000000E+00  8.198581E-03  5.107390E-04  1.239650E-19  2.587092E-01  0.000000E+00
  3.271950E-01  1.994167E-02  5.000000E-01  3.304993E-01  2.007097E-02  0.000000E+00  8.164661E-03  4.711403E-04 -1.678680E-19  2.591763E-01  0.000000E+00
  3.468470E-01  2.104035E-02  5.000000E-01  3.503498E-01  2.118075E-02  0.000000E+00  8.096318E-03  4.380794E-04  5.174896E-19  2.602481E-01  0.000000E+00
  3.669110E-01  2.209117E-02  5.000000E-01  3.706164E-01  2.224218E-02  0.000000E+00  8.011812E-03  4.035447E-04  6.909589E-19  2.634118E-01  0.000000E+00
  3.873360E-01  2.307844E-02  5.000000E-01  3.912477E-01  2.323942E-02  0.000000E+00  7.932074E-03  3.652416E-04 -3.841942E-19  2.674240E-01  0.000000E+00
  4.080670E-01  2.398452E-02  5.000000E-01  4.121880E-01  2.415465E-02  0.000000E+00  7.869557E-03  3.222228E-04 -8.989913E-19  2.712236E-01  0.000000E+00
  4.290470E-01  2.478550E-02  5.000000E-01  4.333799E-01  2.496372E-02  0.000000E+00  7.830403E-03  2.737699E-04 -1.978571E-19  2.746420E-01  0.000000E+00
  4.502140E-01  2.545734E-02  5.000000E-01  4.547607E-01  2.564235E-02  0.000000E+00  7.812101E-03  2.227976E-04  2.935823E-18  2.770787E-01  0.000000E+00
  4.715070E-01  2.599501E-02  5.000000E-01  4.762687E-01  2.618544E-02  0.000000E+00  7.799778E-03  1.749890E-04  3.114734E-18  2.777473E-01  0.000000E+00
  4.928620E-01  2.641336E-02  5.000000E-01  4.978394E-01  2.660802E-02  0.000000E+00  7.774490E-03  1.332866E-04 -3.936950E-19  2.772533E-01  0.000000E+00
  5.142140E-01  2.672755E-02  5.000000E-01  5.194070E-01  2.692539E-02  0.000000E+00  7.725329E-03  9.740577E-05 -1.900091E-18  2.769221E-01  0.000000E+00
  5.355000E-01  2.695081E-02  5.000000E-01  5.409080E-01  2.715090E-02  0.000000E+00  7.651464E-03  6.659224E-05 -2.185282E-18  2.771114E-01  0.000000E+00
  5.566560E-01  2.709632E-02  5.000000E-01  5.622776E-01  2.729787E-02  0.000000E+00  7.562790E-03  3.680857E-05  7.115146E-19  2.780467E-01  0.000000E+00
  4.727610E-01  7.250693E-02  5.000000E-01  4.775354E-01  7.316709E-02  0.000000E+00  1.295107E-02 -1.045548E-03 -1.238238E-18 -5.604325E-01  0.000000E+00
  4.515970E-01  7.414647E-02  5.000000E-01  4.561576E-01  7.482318E-02  0.000000E+00  1.334040E-02 -9.842964E-04 -4.281044E-19 -5.866367E-01  0.000000E+00
  4.305020E-01  7.562783E-02  5.000000E-01  4.348496E-01  7.631950E-02  0.000000E+00  1.372771E-02 -9.116311E-04 -1.182334E-18 -6.123891E-01  0.000000E+00
  4.095340E-01  7.694237E-02  5.000000E-01  4.136698E-01  7.764732E-02  0.000000E+00  1.410519E-02 -8.313845E-04 -1.540958E-18 -6.386753E-01  0.000000E+00
  3.887520E-01  7.809104E-02  5.000000E-01  3.926780E-01  7.880759E-02  0.000000E+00  1.447904E-02 -7.452699E-04 -9.334327E-19 -6.665557E-01  0.000000E+00
  3.682080E-01  7.907236E-02  5.000000E-01  3.719265E-01  7.979882E-02  0.000000E+00  1.486551E-02 -6.506340E-04 -6.793175E-19 -6.965913E-01  0.000000E+00
  3.479570E-01  7.987973E-02  5.000000E-01  3.514710E-01  8.061435E-02  0.000000E+00  1.528404E-02 -5.434191E-04 -7.306458E-19 -7.295854E-01  0.000000E+00
  3.280470E-01  8.050347E-02  5.000000E-01  3.313599E-01  8.124438E-02  0.000000E+00  1.575642E-02 -4.189220E-04 -2.195235E-18 -7.664559E-01  0.000000E+00
  3.085240E-01  8.093243E-02  5.000000E-01  3.116398E-01  8.167767E-02  0.000000E+00  1.630289E-02 -2.680950E-04 -3.017896E-18 -8.066439E-01  0.000000E+00
  2.894320E-01  8.114502E-02  5.000000E-01  2.923549E-01  8.189241E-02  0.000000E+00  1.692959E-02 -7.997395E-05 -2.695084E-18 -8.487070E-01  0.000000E+00
  2.708110E-01  8.111874E-02  5.000000E-01  2.735459E-01  8.186587E-02  0.000000E+00  1.762986E-02  1.523301E-04 -1.999045E-18 -8.930733E-01  0.000000E+00
  2.526960E-01  8.083559E-02  5.000000E-01  2.552479E-01  8.157986E-02  0.000000E+00  1.841001E-02  4.346355E-04 -3.041554E-18 -9.426276E-01  0.000000E+00
  2.351200E-01  8.028464E-02  5.000000E-01  2.374945E-01  8.102334E-02  0.000000E+00  1.930439E-02  7.892760E-04 -4.172674E-18 -9.976213E-01  0.000000E+00
  2.181120E-01  7.943482E-02  5.000000E-01  2.203147E-01  8.016494E-02  0.000000E+00  2.033533E-02  1.258303E-03 -2.540403E-18 -1.052065E+00  0.000000E+00
  2.017010E-01  7.823460E-02  5.000000E-01  2.037380E-01  7.895260E-02  0.000000E+00  2.146331E-02  1.866809E-03 -9.133212E-19 -1.100303E+00  0.000000E+00
  1.859190E-01  7.665460E-02  5.000000E-01  1.877966E-01  7.735664E-02  0.000000E+00  2.261012E-02  2.613638E-03  8.701223E-19 -1.139311E+00  0.000000E+00
  1.707920E-01  7.468312E-02  5.000000E-01  1.725168E-01  7.536525E-02  0.000000E+00  2.369726E-02  3.492564E-03  8.552463E-19 -1.164964E+00  0.000000E+00
  1.563470E-01  7.231880E-02  5.000000E-01  1.579259E-01  7.297705E-02  0.000000E+00  2.464561E-02  4.489596E-03 -2.991146E-20 -1.172448E+00  0.000000E+00
  1.426070E-01  6.957126E-02  5.000000E-01  1.440472E-01  7.020177E-02  0.000000E+00  2.537511E-02  5.569722E-03  5.736379E-19 -1.158427E+00  0.000000E+00
  1.295900E-01  6.646650E-02  5.000000E-01  1.308987E-01  6.706566E-02  0.000000E+00  2.582132E-02  6.676500E-03 -8.219610E-19 -1.122403E+00  0.000000E+00
  1.173060E-01  6.304739E-02  5.000000E-01  1.184907E-01  6.361201E-02  0.000000E+00  2.595507E-02  7.750549E-03 -1.313359E-18 -1.065778E+00  0.000000E+00
  1.057600E-01  5.936603E-02  5.000000E-01  1.068281E-01  5.989347E-02  0.000000E+00  2.578449E-02  8.743709E-03  1.321140E-18 -9.909608E-01  0.000000E+00
  9.495290E-02  5.548011E-02  5.000000E-01  9.591182E-02  5.596831E-02  0.000000E+00  2.534817E-02  9.619871E-03  3.004796E-18 -9.016431E-01  0.000000E+00
  8.487680E-02  5.145115E-02  5.000000E-01  8.573396E-02  5.189867E-02  0.000000E+00  2.470542E-02  1.036055E-02  6.289618E-18 -8.010412E-01  0.000000E+00
  8.487680E-02  5.145115E-02  5.000000E-01  8.573396E-02  5.189867E-02  0.000000E+00  2.470542E-02  1.036055E-02  6.289618E-18 -8.010412E-01  0.000000E+00
  7.552090E-02  4.734058E-02  5.000000E-01  7.628358E-02  4.774658E-02  0.000000E+00  2.390722E-02  1.095781E-02  8.727342E-18 -6.902540E-01  0.000000E+00
  6.687020E-02  4.320655E-02  5.000000E-01  6.754552E-02  4.357081E-02  0.000000E+00  2.297775E-02  1.138461E-02  8.960931E-18 -5.718027E-01  0.000000E+00
  5.889940E-02  3.911189E-02  5.000000E-01  5.949422E-02  3.943480E-02  0.000000E+00  2.194980E-02  1.160828E-02  8.377783E-18 -4.524420E-01  0.000000E+00
  5.157140E-02  3.512008E-02  5.000000E-01  5.209221E-02  3.540267E-02  0.000000E+00  2.090941E-02  1.165362E-02  7.432517E-18 -3.400149E-01  0.000000E+00
  4.484650E-02  3.128303E-02  5.000000E-01  4.529940E-02  3.152687E-02  0.000000E+00  1.998714E-02  1.163406E-02  8.508855E-18 -2.385206E-01  0.000000E+00
  3.869820E-02  2.763066E-02  5.000000E-01  3.908901E-02  2.783762E-02  0.000000E+00  1.930706E-02  1.170647E-02  1.605204E-18 -1.469247E-01  0.000000E+00
  3.311550E-02  2.417472E-02  5.000000E-01  3.344993E-02  2.434677E-02  0.000000E+00  1.892420E-02  1.198329E-02 -1.884569E-17 -6.015623E-02  0.000000E+00
  2.809130E-02  2.092264E-02  5.000000E-01  2.837499E-02  2.106185E-02  0.000000E+00  1.869862E-02  1.242908E-02 -4.302199E-17  3.657901E-02  0.000000E+00
  2.362330E-02  1.787855E-02  5.000000E-01  2.386187E-02  1.798702E-02  0.000000E+00  1.825833E-02  1.270412E-02 -8.189282E-17  1.530377E-01  0.000000E+00
  1.966610E-02  1.506607E-02  5.000000E-01  1.986471E-02  1.514613E-02  0.000000E+00  1.740815E-02  1.234355E-02 -1.379339E-16  2.642545E-01  0.000000E+00
  1.609460E-02  1.253709E-02  5.000000E-01  1.625714E-02  1.259162E-02  0.000000E+00  1.646412E-02  1.144172E-02 -1.060307E-16  3.442191E-01  0.000000E+00
  1.282740E-02  1.031056E-02  5.000000E-01  1.295694E-02  1.034260E-02  0.000000E+00  1.597449E-02  1.067714E-02  3.508345E-16  3.959929E-01  0.000000E+00
  9.860990E-03  8.367855E-03  5.000000E-01  9.960576E-03  8.380276E-03  0.000000E+00  1.630588E-02  1.066523E-02  1.824513E-15  4.373372E-01  0.000000E+00
  7.251350E-03  6.664669E-03  5.000000E-01  7.324582E-03  6.659889E-03  0.000000E+00  1.750340E-02  1.164075E-02  4.479627E-15  4.823300E-01  0.000000E+00
  5.038810E-03  5.168844E-03  5.000000E-01  5.089698E-03  5.148959E-03  0.000000E+00  1.941225E-02  1.363303E-02  5.862549E-15  5.335420E-01  0.000000E+00
  3.239710E-03  3.864130E-03  5.000000E-01  3.272429E-03  3.831069E-03  0.000000E+00  2.158467E-02  1.667928E-02 -2.702351E-15  5.976970E-01  0.000000E+00
  1.861880E-03  2.741905E-03  5.000000E-01  1.880684E-03  2.697510E-03  0.000000E+00  2.258860E-02  2.029439E-02 -3.804595E-14  6.908287E-01  0.000000E+00
  9.013910E-04  1.801593E-03  5.000000E-01  9.104952E-04  1.747702E-03  0.000000E+00  1.933893E-02  2.167108E-02 -1.182039E-13  8.305720E-01  0.000000E+00
  3.295630E-04  1.051602E-03  5.000000E-01  3.328923E-04  9.901367E-04  0.000000E+00  9.542739E-03  1.339603E-02 -2.418023E-13  9.906283E-01  0.000000E+00
  7.194000E-05  5.066108E-04  5.000000E-01  7.266764E-05  4.396420E-04  0.000000E+00 -1.161215E-03 -1.104705E-02 -3.661273E-13  1.040335E+00  0.000000E+00
  4.516100E-06  1.796831E-04  5.000000E-01  4.562832E-06  1.094127E-04  0.000000E+00 -4.185588E-03 -3.710297E-02 -4.274564E-13  8.986227E-01  0.000000E+00
 -1.112850E-09  7.136430E-05  5.000000E-01  0.000000E+00  0.000000E+00  0.000000E+00 -1.406355E-03 -3.830041E-02 -4.341300E-13  7.799819E-01  0.000000E+00