 Title = "ADflow Slice Data"
Variables =  "CoordinateX"  "CoordinateY"  "CoordinateZ"  "XoC"  "YoC"  "ZoC" "VelocityX" "VelocityY" "VelocityZ" "CoefPressure" "Mach" 
Zone T= "Slice_0001 None Absolute Regular z = 0.50000000"
 Nodes =          192  Elements=          184  ZONETYPE=FELINESEG
 DATAPACKING=POINT
  5.566560E-01  2.995413E-02  5.000000E-01  5.622776E-01  3.019600E-02  0.000000E+00  7.408183E-03  2.054264E-05  2.058607E-18  3.017684E-01  0.000000E+00
  5.776220E-01  2.993760E-02  5.000000E-01  5.834553E-01  3.017929E-02  0.000000E+00  7.436546E-03 -3.167098E-05 -1.180299E-18  3.007366E-01  0.000000E+00
  5.983370E-01  2.977770E-02  5.000000E-01  6.043795E-01  3.001778E-02  0.000000E+00  7.472960E-03 -8.262376E-05 -6.105483E-18  2.989655E-01  0.000000E+00
  6.187480E-01  2.948425E-02  5.000000E-01  6.249967E-01  2.972137E-02  0.000000E+00  7.515118E-03 -1.320312E-04 -1.149940E-17  2.966297E-01  0.000000E+00
  6.388030E-01  2.906829E-02  5.000000E-01  6.452542E-01  2.930120E-02  0.000000E+00  7.561255E-03 -1.799239E-04 -1.119468E-17  2.938894E-01  0.000000E+00
  6.584530E-01  2.854112E-02  5.000000E-01  6.651026E-01  2.876871E-02  0.000000E+00  7.609662E-03 -2.262696E-04 -6.460984E-18  2.908541E-01  0.000000E+00
  6.776550E-01  2.791458E-02  5.000000E-01  6.844985E-01  2.813585E-02  0.000000E+00  7.657511E-03 -2.706391E-04 -2.614022E-18  2.875029E-01  0.000000E+00
  6.963720E-01  2.720253E-02  5.000000E-01  7.034046E-01  2.741660E-02  0.000000E+00  7.701104E-03 -3.129369E-04  7.942472E-20  2.839684E-01  0.000000E+00
  7.145680E-01  2.641628E-02  5.000000E-01  7.217843E-01  2.662241E-02  0.000000E+00  7.737095E-03 -3.534276E-04  2.459323E-18  2.804375E-01  0.000000E+00
  7.322140E-01  2.556675E-02  5.000000E-01  7.396085E-01  2.576430E-02  0.000000E+00  7.763081E-03 -3.919366E-04  3.330161E-18  2.769536E-01  0.000000E+00
  7.492860E-01  2.466503E-02  5.000000E-01  7.568529E-01  2.485348E-02  0.000000E+00  7.779531E-03 -4.280520E-04  3.183270E-18  2.736404E-01  0.000000E+00
  7.657630E-01  2.372204E-02  5.000000E-01  7.734963E-01  2.390097E-02  0.000000E+00  7.791049E-03 -4.619938E-04  2.519232E-18  2.703838E-01  0.000000E+00
  7.816300E-01  2.274790E-02  5.000000E-01  7.895236E-01  2.291699E-02  0.000000E+00  7.808536E-03 -4.986056E-04  2.489790E-18  2.672512E-01  0.000000E+00
  7.968740E-01  2.173827E-02  5.000000E-01  8.049215E-01  2.189716E-02  0.000000E+00  7.855909E-03 -5.490343E-04  3.323020E-18  2.652373E-01  0.000000E+00
  8.114890E-01  2.066452E-02  5.000000E-01  8.196841E-01  2.081257E-02  0.000000E+00  7.957296E-03 -6.170284E-04  3.470371E-18  2.631332E-01  0.000000E+00
  8.254710E-01  1.952305E-02  5.000000E-01  8.338073E-01  1.965957E-02  0.000000E+00  8.112277E-03 -6.941767E-04  1.645454E-18  2.583306E-01  0.000000E+00
  8.388180E-01  1.832897E-02  5.000000E-01  8.472891E-01  1.845344E-02  0.000000E+00  8.300762E-03 -7.714608E-04 -7.004282E-19  2.507323E-01  0.000000E+00
  8.515320E-01  1.710434E-02  5.000000E-01  8.601315E-01  1.721643E-02  0.000000E+00  8.503427E-03 -8.436783E-04 -1.217415E-18  2.415182E-01  0.000000E+00
  8.636180E-01  1.587124E-02  5.000000E-01  8.723396E-01  1.597088E-02  0.000000E+00  8.708678E-03 -9.087055E-04 -9.078902E-19  2.315471E-01  0.000000E+00
  8.750810E-01  1.464920E-02  5.000000E-01  8.839183E-01  1.473650E-02  0.000000E+00  8.909688E-03 -9.660047E-04 -8.175872E-19  2.212011E-01  0.000000E+00
  8.859290E-01  1.345379E-02  5.000000E-01  8.948759E-01  1.352902E-02  0.000000E+00  9.102205E-03 -1.015844E-03 -5.545330E-19  2.107603E-01  0.000000E+00
  8.961710E-01  1.229664E-02  5.000000E-01  9.052213E-01  1.236018E-02  0.000000E+00  9.284246E-03 -1.058893E-03 -8.270229E-20  2.004433E-01  0.000000E+00
  9.058170E-01  1.118637E-02  5.000000E-01  9.149647E-01  1.123869E-02  0.000000E+00  9.455508E-03 -1.095961E-03  2.996242E-20  1.903781E-01  0.000000E+00
  9.148770E-01  1.012907E-02  5.000000E-01  9.241162E-01  1.017073E-02  0.000000E+00  9.616417E-03 -1.127778E-03 -1.550483E-19  1.806189E-01  0.000000E+00
  9.148770E-01  1.012907E-02  5.000000E-01  9.241162E-01  1.017073E-02  0.000000E+00  9.616417E-03 -1.127778E-03 -1.550483E-19  1.806189E-01  0.000000E+00
  9.233640E-01  9.128931E-03  5.000000E-01  9.326889E-01  9.160482E-03  0.000000E+00  9.767830E-03 -1.155146E-03  7.660970E-19  1.712225E-01  0.000000E+00
  9.312880E-01  8.188604E-03  5.000000E-01  9.406930E-01  8.210658E-03  0.000000E+00  9.911138E-03 -1.178889E-03  6.555958E-19  1.622354E-01  0.000000E+00
  9.386620E-01  7.309486E-03  5.000000E-01  9.481414E-01  7.322662E-03  0.000000E+00  1.004784E-02 -1.199731E-03 -7.790349E-19  1.536512E-01  0.000000E+00
  9.454960E-01  6.492249E-03  5.000000E-01  9.550444E-01  6.497172E-03  0.000000E+00  1.017900E-02 -1.218186E-03 -5.479843E-19  1.454390E-01  0.000000E+00
  9.518040E-01  5.736762E-03  5.000000E-01  9.614161E-01  5.734055E-03  0.000000E+00  1.030583E-02 -1.234799E-03  3.350931E-18  1.376087E-01  0.000000E+00
  9.575950E-01  5.042633E-03  5.000000E-01  9.672656E-01  5.032917E-03  0.000000E+00  1.043048E-02 -1.250198E-03  7.128073E-18  1.301493E-01  0.000000E+00
  9.628810E-01  4.409065E-03  5.000000E-01  9.726050E-01  4.392950E-03  0.000000E+00  1.055681E-02 -1.265084E-03 -3.535839E-18  1.230311E-01  0.000000E+00
  9.676710E-01  3.835150E-03  5.000000E-01  9.774434E-01  3.813239E-03  0.000000E+00  1.069154E-02 -1.280496E-03 -4.415812E-17  1.162457E-01  0.000000E+00
  9.719750E-01  3.319864E-03  5.000000E-01  9.817908E-01  3.292749E-03  0.000000E+00  1.084347E-02 -1.297580E-03 -7.867100E-17  1.097856E-01  0.000000E+00
  9.758020E-01  2.862133E-03  5.000000E-01  9.856565E-01  2.830396E-03  0.000000E+00  1.101629E-02 -1.316892E-03  6.442771E-17  1.036601E-01  0.000000E+00
  9.791590E-01  2.460970E-03  5.000000E-01  9.890474E-01  2.425182E-03  0.000000E+00  1.118852E-02 -1.336173E-03  5.296879E-16  9.773362E-02  0.000000E+00
  9.820540E-01  2.115390E-03  5.000000E-01  9.919716E-01  2.076112E-03  0.000000E+00  1.129428E-02 -1.348614E-03  7.615092E-16  9.234409E-02  0.000000E+00
  9.844930E-01  1.824540E-03  5.000000E-01  9.944353E-01  1.782324E-03  0.000000E+00  1.121117E-02 -1.336587E-03 -5.941315E-16  8.837311E-02  0.000000E+00
  9.864820E-01  1.587632E-03  5.000000E-01  9.964443E-01  1.543024E-03  0.000000E+00  1.063292E-02 -1.254991E-03 -3.141161E-15  8.220944E-02  0.000000E+00
  9.880240E-01  1.404066E-03  5.000000E-01  9.980019E-01  1.357605E-03  0.000000E+00  9.079803E-03 -1.088926E-03 -2.362402E-15  6.792574E-02  0.000000E+00
  9.891220E-01  1.273309E-03  5.000000E-01  9.991110E-01  1.225527E-03  0.000000E+00  8.343923E-03 -1.106663E-03  4.311547E-15  8.458973E-02  0.000000E+00
  9.897810E-01  1.194992E-03  5.000000E-01  9.997767E-01  1.146419E-03  0.000000E+00  1.563787E-02 -6.649359E-04  7.117515E-15  1.780958E-01  0.000000E+00
  9.900000E-01  1.168923E-03  5.000000E-01  9.999979E-01  1.120086E-03  0.000000E+00  1.309011E-02 -1.661316E-03 -6.681166E-15 -6.190458E-02  0.000000E+00
  9.900000E-01  1.355144E-03  5.000000E-01  9.999979E-01  1.308188E-03  0.000000E+00  1.212005E-03 -1.360394E-02 -2.040210E-14 -2.045364E-01  0.000000E+00
  9.900000E-01  1.541355E-03  5.000000E-01  9.999979E-01  1.496279E-03  0.000000E+00 -7.382572E-04 -1.429389E-02 -2.211998E-14 -2.463050E-02  0.000000E+00
  9.900000E-01  1.727576E-03  5.000000E-01  9.999979E-01  1.684381E-03  0.000000E+00 -4.675721E-04  3.462543E-03 -1.687392E-14 -3.389822E-02  0.000000E+00
  9.900000E-01  1.913796E-03  5.000000E-01  9.999979E-01  1.872482E-03  0.000000E+00  8.128628E-04  3.548645E-03 -4.433761E-15 -1.578097E-01  0.000000E+00
  9.900000E-01  2.100017E-03  5.000000E-01  9.999979E-01  2.060584E-03  0.000000E+00  8.234194E-03 -4.608067E-03  4.741570E-15 -5.971484E-02  0.000000E+00
  9.900000E-01  2.100017E-03  5.000000E-01  9.999979E-01  2.060584E-03  0.000000E+00  8.234194E-03 -4.608067E-03  4.741570E-15 -5.971484E-02  0.000000E+00
  9.897920E-01  2.143405E-03  5.000000E-01  9.997878E-01  2.104409E-03  0.000000E+00  9.101032E-03 -2.732233E-03  5.807124E-15  8.422262E-02  0.000000E+00
  9.891660E-01  2.273477E-03  5.000000E-01  9.991555E-01  2.235795E-03  0.000000E+00  3.397477E-03 -6.166167E-04  3.246586E-15  1.255581E-02  0.000000E+00
  9.881230E-01  2.489977E-03  5.000000E-01  9.981019E-01  2.454481E-03  0.000000E+00  3.262897E-03 -6.721178E-04  4.462098E-16  4.119378E-05  0.000000E+00
  9.866580E-01  2.792497E-03  5.000000E-01  9.966221E-01  2.760057E-03  0.000000E+00  3.866989E-03 -8.049077E-04 -7.651995E-16  6.438471E-03  0.000000E+00
  9.847700E-01  3.180428E-03  5.000000E-01  9.947151E-01  3.151905E-03  0.000000E+00  4.040695E-03 -8.272492E-04 -5.321181E-16  4.534734E-03  0.000000E+00
  9.824550E-01  3.653014E-03  5.000000E-01  9.923767E-01  3.629264E-03  0.000000E+00  4.103948E-03 -8.334148E-04 -7.866317E-17 -8.864431E-04  0.000000E+00
  9.797070E-01  4.209306E-03  5.000000E-01  9.896009E-01  4.191174E-03  0.000000E+00  4.197008E-03 -8.457222E-04  7.128683E-17 -6.900692E-03  0.000000E+00
  9.765220E-01  4.848191E-03  5.000000E-01  9.863838E-01  4.836510E-03  0.000000E+00  4.331395E-03 -8.641563E-04  5.119978E-17 -1.385808E-02  0.000000E+00
  9.728930E-01  5.568387E-03  5.000000E-01  9.827181E-01  5.563980E-03  0.000000E+00  4.505784E-03 -8.887068E-04  1.749691E-17 -2.183791E-02  0.000000E+00
  9.688130E-01  6.368424E-03  5.000000E-01  9.785969E-01  6.372096E-03  0.000000E+00  4.713953E-03 -9.180255E-04  2.860844E-18 -3.064885E-02  0.000000E+00
  9.642740E-01  7.246694E-03  5.000000E-01  9.740121E-01  7.259236E-03  0.000000E+00  4.945918E-03 -9.498611E-04 -2.005850E-18 -4.010618E-02  0.000000E+00
  9.592670E-01  8.201442E-03  5.000000E-01  9.689545E-01  8.223626E-03  0.000000E+00  5.192733E-03 -9.823598E-04 -2.905906E-18 -5.013221E-02  0.000000E+00
  9.537850E-01  9.230769E-03  5.000000E-01  9.634171E-01  9.263347E-03  0.000000E+00  5.448017E-03 -1.014094E-03 -1.589780E-18 -6.056758E-02  0.000000E+00
  9.478160E-01  1.033266E-02  5.000000E-01  9.573879E-01  1.037637E-02  0.000000E+00  5.706765E-03 -1.044065E-03  1.871122E-19 -7.130313E-02  0.000000E+00
  9.413520E-01  1.150511E-02  5.000000E-01  9.508586E-01  1.156066E-02  0.000000E+00  5.965203E-03 -1.071644E-03  1.045162E-18 -8.223483E-02  0.000000E+00
  9.343800E-01  1.274613E-02  5.000000E-01  9.438162E-01  1.281421E-02  0.000000E+00  6.219978E-03 -1.096361E-03  4.795481E-21 -9.323465E-02  0.000000E+00
  9.268920E-01  1.405354E-02  5.000000E-01  9.362526E-01  1.413482E-02  0.000000E+00  6.468046E-03 -1.117925E-03 -1.022338E-18 -1.042367E-01  0.000000E+00
  9.188750E-01  1.542563E-02  5.000000E-01  9.281546E-01  1.552077E-02  0.000000E+00  6.706736E-03 -1.136171E-03 -1.190801E-19 -1.151325E-01  0.000000E+00
  9.103190E-01  1.686072E-02  5.000000E-01  9.195122E-01  1.697035E-02  0.000000E+00  6.933437E-03 -1.151125E-03  9.338946E-19 -1.258633E-01  0.000000E+00
  9.012130E-01  1.835755E-02  5.000000E-01  9.103142E-01  1.848230E-02  0.000000E+00  7.145924E-03 -1.162868E-03  1.159478E-18 -1.363682E-01  0.000000E+00
  8.915460E-01  1.991522E-02  5.000000E-01  9.005496E-01  2.005570E-02  0.000000E+00  7.342408E-03 -1.171734E-03  8.466650E-19 -1.466367E-01  0.000000E+00
  8.813080E-01  2.153360E-02  5.000000E-01  8.902082E-01  2.169042E-02  0.000000E+00  7.521839E-03 -1.178247E-03  8.851744E-19 -1.566782E-01  0.000000E+00
  8.704900E-01  2.321305E-02  5.000000E-01  8.792810E-01  2.338684E-02  0.000000E+00  7.683888E-03 -1.183042E-03  4.440599E-19 -1.665214E-01  0.000000E+00
  8.704900E-01  2.321305E-02  5.000000E-01  8.792810E-01  2.338684E-02  0.000000E+00  7.683888E-03 -1.183042E-03  4.440599E-19 -1.665214E-01  0.000000E+00
  8.590830E-01  2.495499E-02  5.000000E-01  8.677588E-01  2.514637E-02  0.000000E+00  7.829307E-03 -1.187111E-03  3.685401E-19 -1.762893E-01  0.000000E+00
  8.470810E-01  2.676199E-02  5.000000E-01  8.556356E-01  2.697162E-02  0.000000E+00  7.960686E-03 -1.191563E-03  4.831657E-19 -1.861745E-01  0.000000E+00
  8.344780E-01  2.863759E-02  5.000000E-01  8.429053E-01  2.886615E-02  0.000000E+00  8.082592E-03 -1.197446E-03  2.202432E-19 -1.964065E-01  0.000000E+00
  8.212700E-01  3.058567E-02  5.000000E-01  8.295639E-01  3.083391E-02  0.000000E+00  8.201958E-03 -1.205713E-03  6.423511E-19 -2.073843E-01  0.000000E+00
  8.074550E-01  3.260963E-02  5.000000E-01  8.156094E-01  3.287831E-02  0.000000E+00  8.328922E-03 -1.216932E-03  3.406757E-19 -2.196248E-01  0.000000E+00
  7.930350E-01  3.471056E-02  5.000000E-01  8.010438E-01  3.500046E-02  0.000000E+00  8.474667E-03 -1.230456E-03 -1.408445E-18 -2.332856E-01  0.000000E+00
  7.780130E-01  3.688427E-02  5.000000E-01  7.858700E-01  3.719612E-02  0.000000E+00  8.645472E-03 -1.244307E-03 -2.601784E-18 -2.479483E-01  0.000000E+00
  7.623950E-01  3.912032E-02  5.000000E-01  7.700943E-01  3.945475E-02  0.000000E+00  8.840334E-03 -1.257259E-03 -2.073897E-18 -2.634291E-01  0.000000E+00
  7.461930E-01  4.140930E-02  5.000000E-01  7.537287E-01  4.176684E-02  0.000000E+00  9.055702E-03 -1.269013E-03 -2.359998E-18 -2.798072E-01  0.000000E+00
  7.294180E-01  4.374126E-02  5.000000E-01  7.367843E-01  4.412236E-02  0.000000E+00  9.288263E-03 -1.278951E-03 -1.390448E-18 -2.969624E-01  0.000000E+00
  7.120900E-01  4.610492E-02  5.000000E-01  7.192813E-01  4.650988E-02  0.000000E+00  9.534468E-03 -1.286094E-03 -4.614966E-19 -3.147500E-01  0.000000E+00
  6.942280E-01  4.848784E-02  5.000000E-01  7.012389E-01  4.891687E-02  0.000000E+00  9.790805E-03 -1.289634E-03  1.057059E-18 -3.330447E-01  0.000000E+00
  6.758590E-01  5.087713E-02  5.000000E-01  6.826844E-01  5.133029E-02  0.000000E+00  1.005408E-02 -1.289201E-03  5.696170E-18 -3.517369E-01  0.000000E+00
  6.570120E-01  5.325993E-02  5.000000E-01  6.636471E-01  5.373715E-02  0.000000E+00  1.032166E-02 -1.284675E-03  9.992359E-18 -3.707584E-01  0.000000E+00
  6.377220E-01  5.562387E-02  5.000000E-01  6.441623E-01  5.612497E-02  0.000000E+00  1.059198E-02 -1.276296E-03  1.302715E-17 -3.901612E-01  0.000000E+00
  6.180260E-01  5.795775E-02  5.000000E-01  6.242674E-01  5.848241E-02  0.000000E+00  1.086531E-02 -1.264312E-03  1.414869E-17 -4.100662E-01  0.000000E+00
  5.979670E-01  6.025005E-02  5.000000E-01  6.040058E-01  6.079787E-02  0.000000E+00  1.114383E-02 -1.248736E-03  1.222156E-17 -4.306857E-01  0.000000E+00
  5.775910E-01  6.248893E-02  5.000000E-01  5.834240E-01  6.305936E-02  0.000000E+00  1.143144E-02 -1.229281E-03  7.975162E-18 -4.522218E-01  0.000000E+00
  5.569470E-01  6.466161E-02  5.000000E-01  5.625715E-01  6.525398E-02  0.000000E+00  1.173199E-02 -1.204874E-03  2.740391E-18 -4.745933E-01  0.000000E+00
  5.360860E-01  6.675228E-02  5.000000E-01  5.414999E-01  6.736576E-02  0.000000E+00  1.204695E-02 -1.174342E-03 -2.994371E-18 -4.976727E-01  0.000000E+00
  5.150640E-01  6.874534E-02  5.000000E-01  5.202656E-01  6.937894E-02  0.000000E+00  1.237582E-02 -1.137087E-03 -6.065063E-18 -5.214930E-01  0.000000E+00
  4.939370E-01  7.062614E-02  5.000000E-01  4.989252E-01  7.127874E-02  0.000000E+00  1.271777E-02 -1.092516E-03 -5.347512E-18 -5.460590E-01  0.000000E+00
  4.727610E-01  7.238085E-02  5.000000E-01  4.775354E-01  7.305117E-02  0.000000E+00  1.307205E-02 -1.039953E-03 -6.769949E-18 -5.713554E-01  0.000000E+00
  5.770140E-06 -5.188528E-05  5.000000E-01  5.829536E-06 -1.130507E-04  0.000000E+00  3.752665E-03 -2.179723E-02 -5.046904E-13  9.104432E-01  0.000000E+00
  9.104010E-05 -3.816606E-04  5.000000E-01  9.196063E-05 -4.461564E-04  0.000000E+00  1.999803E-02 -3.479625E-02 -4.614099E-13  9.169097E-01  0.000000E+00
  4.796980E-04 -8.882141E-04  5.000000E-01  4.845435E-04 -9.578255E-04  0.000000E+00  3.856691E-02 -3.412570E-02 -3.356099E-13  6.046961E-01  0.000000E+00
  1.456590E-03 -1.466549E-03  5.000000E-01  1.471301E-03 -1.542001E-03  0.000000E+00  4.178963E-02 -1.998537E-02 -1.838487E-13  2.725593E-01  0.000000E+00
  3.096410E-03 -2.015909E-03  5.000000E-01  3.127681E-03 -2.096908E-03  0.000000E+00  3.422977E-02 -9.818597E-03 -6.843399E-14  1.587181E-01  0.000000E+00
  5.335170E-03 -2.514999E-03  5.000000E-01  5.389050E-03 -2.601039E-03  0.000000E+00  2.736091E-02 -5.287210E-03 -7.404735E-15  1.419640E-01  0.000000E+00
  8.129670E-03 -2.958148E-03  5.000000E-01  8.211772E-03 -3.048663E-03  0.000000E+00  2.316202E-02 -3.158626E-03  1.174015E-14  1.204809E-01  0.000000E+00
  1.145600E-02 -3.327594E-03  5.000000E-01  1.157169E-02 -3.421841E-03  0.000000E+00  1.998326E-02 -1.742777E-03  1.078770E-14  8.458931E-02  0.000000E+00
  1.529970E-02 -3.556846E-03  5.000000E-01  1.545421E-02 -3.653408E-03  0.000000E+00  1.658540E-02 -5.467009E-04  5.670951E-15  4.630610E-02  0.000000E+00
  1.962420E-02 -3.554126E-03  5.000000E-01  1.982238E-02 -3.650660E-03  0.000000E+00  1.304607E-02  2.391290E-04  2.041849E-15  3.834596E-02  0.000000E+00
  2.439810E-02 -3.342323E-03  5.000000E-01  2.464449E-02 -3.436718E-03  0.000000E+00  1.066054E-02  4.665328E-04  7.703896E-17  9.147124E-02  0.000000E+00
  2.966100E-02 -3.112599E-03  5.000000E-01  2.996054E-02 -3.204674E-03  0.000000E+00  1.023318E-02  3.997142E-04 -8.584113E-16  1.569083E-01  0.000000E+00
  3.543640E-02 -2.928458E-03  5.000000E-01  3.579427E-02 -3.018673E-03  0.000000E+00  1.097386E-02  3.136778E-04 -1.101471E-15  1.751158E-01  0.000000E+00
  4.172970E-02 -2.770867E-03  5.000000E-01  4.215112E-02 -2.859492E-03  0.000000E+00  1.173471E-02  2.903816E-04 -9.148118E-16  1.612673E-01  0.000000E+00
  4.854440E-02 -2.601329E-03  5.000000E-01  4.903464E-02 -2.688241E-03  0.000000E+00  1.205658E-02  3.418824E-04 -5.739382E-16  1.425304E-01  0.000000E+00
  5.588220E-02 -2.366092E-03  5.000000E-01  5.644655E-02 -2.450629E-03  0.000000E+00  1.200478E-02  4.328175E-04 -2.729149E-16  1.305819E-01  0.000000E+00
  6.375220E-02 -2.048553E-03  5.000000E-01  6.439603E-02 -2.129883E-03  0.000000E+00  1.181379E-02  5.095574E-04 -8.329838E-17  1.285316E-01  0.000000E+00
  7.217040E-02 -1.661017E-03  5.000000E-01  7.289924E-02 -1.738433E-03  0.000000E+00  1.167003E-02  5.527749E-04  5.131637E-18  1.318369E-01  0.000000E+00
  8.115500E-02 -1.224193E-03  5.000000E-01  8.197457E-02 -1.297198E-03  0.000000E+00  1.162309E-02  5.770307E-04  3.143280E-17  1.339868E-01  0.000000E+00
  9.072040E-02 -7.408682E-04  5.000000E-01  9.163657E-02 -8.089916E-04  0.000000E+00  1.162285E-02  6.034185E-04  2.955891E-17  1.319100E-01  0.000000E+00
  1.008780E-01 -1.995482E-04  5.000000E-01  1.018968E-01 -2.622049E-04  0.000000E+00  1.160975E-02  6.394201E-04  2.000603E-17  1.276829E-01  0.000000E+00
  1.116380E-01  4.128193E-04  5.000000E-01  1.127654E-01  3.563468E-04  0.000000E+00  1.155398E-02  6.850151E-04  1.225261E-17  1.237338E-01  0.000000E+00
  1.230100E-01  1.114332E-03  5.000000E-01  1.242523E-01  1.064944E-03  0.000000E+00  1.143708E-02  7.397457E-04  7.680732E-18  1.207774E-01  0.000000E+00
  1.350030E-01  1.926314E-03  5.000000E-01  1.363664E-01  1.885126E-03  0.000000E+00  1.123831E-02  8.014810E-04  3.447772E-18  1.194012E-01  0.000000E+00
  1.350030E-01  1.926314E-03  5.000000E-01  1.363664E-01  1.885126E-03  0.000000E+00  1.123831E-02  8.014810E-04  3.447772E-18  1.194012E-01  0.000000E+00
  1.476220E-01  2.872816E-03  5.000000E-01  1.491128E-01  2.841187E-03  0.000000E+00  1.094060E-02  8.662093E-04 -3.120213E-18  1.205558E-01  0.000000E+00
  1.608730E-01  3.979105E-03  5.000000E-01  1.624976E-01  3.958648E-03  0.000000E+00  1.054197E-02  9.282836E-04 -1.046614E-17  1.253813E-01  0.000000E+00
  1.747560E-01  5.268000E-03  5.000000E-01  1.765208E-01  5.260559E-03  0.000000E+00  1.006271E-02  9.799707E-04 -1.366749E-17  1.347248E-01  0.000000E+00
  1.892730E-01  6.750969E-03  5.000000E-01  1.911844E-01  6.758505E-03  0.000000E+00  9.546179E-03  1.009730E-03 -1.080190E-17  1.488908E-01  0.000000E+00
  2.044180E-01  8.412355E-03  5.000000E-01  2.064824E-01  8.436669E-03  0.000000E+00  9.060256E-03  1.004025E-03 -4.148004E-18  1.688161E-01  0.000000E+00
  2.201880E-01  1.018016E-02  5.000000E-01  2.224116E-01  1.022232E-02  0.000000E+00  8.665837E-03  9.650111E-04  1.907268E-18  1.919379E-01  0.000000E+00
  2.365750E-01  1.199007E-02  5.000000E-01  2.389641E-01  1.205051E-02  0.000000E+00  8.370485E-03  9.109228E-04  4.241026E-18  2.122216E-01  0.000000E+00
  2.535710E-01  1.380924E-02  5.000000E-01  2.561318E-01  1.388805E-02  0.000000E+00  8.144837E-03  8.532615E-04  2.539106E-18  2.280646E-01  0.000000E+00
  2.711570E-01  1.561090E-02  5.000000E-01  2.738954E-01  1.570791E-02  0.000000E+00  7.966557E-03  7.938322E-04  8.815815E-20  2.414027E-01  0.000000E+00
  2.893100E-01  1.736867E-02  5.000000E-01  2.922317E-01  1.748344E-02  0.000000E+00  7.829747E-03  7.323410E-04 -1.177473E-18  2.534148E-01  0.000000E+00
  3.080020E-01  1.905442E-02  5.000000E-01  3.111125E-01  1.918620E-02  0.000000E+00  7.730623E-03  6.699542E-04 -2.773122E-18  2.637665E-01  0.000000E+00
  3.271950E-01  2.064887E-02  5.000000E-01  3.304993E-01  2.079676E-02  0.000000E+00  7.659995E-03  6.083794E-04 -1.931739E-18  2.720530E-01  0.000000E+00
  3.468470E-01  2.213729E-02  5.000000E-01  3.503498E-01  2.230021E-02  0.000000E+00  7.607363E-03  5.485987E-04 -2.408460E-19  2.785968E-01  0.000000E+00
  3.669110E-01  2.351095E-02  5.000000E-01  3.706164E-01  2.368774E-02  0.000000E+00  7.564202E-03  4.915509E-04  3.520393E-19  2.837343E-01  0.000000E+00
  3.873360E-01  2.476665E-02  5.000000E-01  3.912477E-01  2.495612E-02  0.000000E+00  7.524855E-03  4.372717E-04  7.351794E-19  2.878258E-01  0.000000E+00
  4.080670E-01  2.590131E-02  5.000000E-01  4.121880E-01  2.610224E-02  0.000000E+00  7.487790E-03  3.844942E-04  1.273967E-18  2.913613E-01  0.000000E+00
  4.290470E-01  2.690750E-02  5.000000E-01  4.333799E-01  2.711859E-02  0.000000E+00  7.454487E-03  3.321505E-04  1.792257E-18  2.945235E-01  0.000000E+00
  4.502140E-01  2.777823E-02  5.000000E-01  4.547607E-01  2.799812E-02  0.000000E+00  7.426479E-03  2.801406E-04  2.334086E-18  2.971508E-01  0.000000E+00
  4.715070E-01  2.850836E-02  5.000000E-01  4.762687E-01  2.873562E-02  0.000000E+00  7.404572E-03  2.285851E-04  3.486378E-18  2.991582E-01  0.000000E+00
  4.928620E-01  2.909436E-02  5.000000E-01  4.978393E-01  2.932754E-02  0.000000E+00  7.389886E-03  1.772819E-04  3.255078E-18  3.006004E-01  0.000000E+00
  5.142140E-01  2.953285E-02  5.000000E-01  5.194070E-01  2.977046E-02  0.000000E+00  7.384457E-03  1.256304E-04  2.315137E-18  3.015639E-01  0.000000E+00
  5.355000E-01  2.982003E-02  5.000000E-01  5.409079E-01  3.006053E-02  0.000000E+00  7.390354E-03  7.326542E-05  3.224434E-18  3.020055E-01  0.000000E+00
  5.566560E-01  2.995413E-02  5.000000E-01  5.622776E-01  3.019600E-02  0.000000E+00  7.408183E-03  2.054264E-05  2.058607E-18  3.017684E-01  0.000000E+00
  4.727610E-01  7.238085E-02  5.000000E-01  4.775354E-01  7.305117E-02  0.000000E+00  1.307205E-02 -1.039953E-03 -6.769949E-18 -5.713554E-01  0.000000E+00
  4.515970E-01  7.399638E-02  5.000000E-01  4.561576E-01  7.468302E-02  0.000000E+00  1.343800E-02 -9.786638E-04 -1.048591E-17 -5.973184E-01  0.000000E+00
  4.305020E-01  7.546082E-02  5.000000E-01  4.348496E-01  7.616224E-02  0.000000E+00  1.381525E-02 -9.080671E-04 -1.121249E-17 -6.240057E-01  0.000000E+00
  4.095340E-01  7.676363E-02  5.000000E-01  4.136698E-01  7.747822E-02  0.000000E+00  1.420554E-02 -8.281030E-04 -1.003823E-17 -6.519478E-01  0.000000E+00
  3.887520E-01  7.789717E-02  5.000000E-01  3.926780E-01  7.862320E-02  0.000000E+00  1.461548E-02 -7.375849E-04 -8.545809E-18 -6.817504E-01  0.000000E+00
  3.682080E-01  7.885222E-02  5.000000E-01  3.719265E-01  7.958789E-02  0.000000E+00  1.505437E-02 -6.327808E-04 -6.257696E-18 -7.134748E-01  0.000000E+00
  3.479570E-01  7.961578E-02  5.000000E-01  3.514710E-01  8.035917E-02  0.000000E+00  1.552831E-02 -5.088666E-04 -3.178632E-18 -7.467078E-01  0.000000E+00
  3.280470E-01  8.017298E-02  5.000000E-01  3.313599E-01  8.092199E-02  0.000000E+00  1.603742E-02 -3.626936E-04 -3.428004E-20 -7.811418E-01  0.000000E+00
  3.085240E-01  8.051291E-02  5.000000E-01  3.116397E-01  8.126536E-02  0.000000E+00  1.657914E-02 -1.928226E-04  2.462605E-18 -8.167256E-01  0.000000E+00
  2.894320E-01  8.062851E-02  5.000000E-01  2.923549E-01  8.138212E-02  0.000000E+00  1.715223E-02  3.576987E-06  3.504367E-18 -8.535273E-01  0.000000E+00
  2.708110E-01  8.051239E-02  5.000000E-01  2.735459E-01  8.126484E-02  0.000000E+00  1.776214E-02  2.310794E-04  1.221126E-18 -8.930360E-01  0.000000E+00
  2.526960E-01  8.015716E-02  5.000000E-01  2.552479E-01  8.090602E-02  0.000000E+00  1.843709E-02  4.969290E-04 -4.346321E-18 -9.389358E-01  0.000000E+00
  2.351200E-01  7.955725E-02  5.000000E-01  2.374944E-01  8.030005E-02  0.000000E+00  1.923411E-02  8.268265E-04 -1.059343E-17 -9.918341E-01  0.000000E+00
  2.181120E-01  7.868214E-02  5.000000E-01  2.203147E-01  7.941610E-02  0.000000E+00  2.019140E-02  1.266708E-03 -1.654168E-17 -1.045613E+00  0.000000E+00
  2.017010E-01  7.747725E-02  5.000000E-01  2.037380E-01  7.819904E-02  0.000000E+00  2.127530E-02  1.844147E-03 -2.119603E-17 -1.094555E+00  0.000000E+00
  1.859190E-01  7.591035E-02  5.000000E-01  1.877966E-01  7.661632E-02  0.000000E+00  2.240784E-02  2.559841E-03 -2.175147E-17 -1.135796E+00  0.000000E+00
  1.707920E-01  7.396699E-02  5.000000E-01  1.725168E-01  7.465333E-02  0.000000E+00  2.350971E-02  3.411469E-03 -1.933439E-17 -1.165040E+00  0.000000E+00
  1.563470E-01  7.164158E-02  5.000000E-01  1.579259E-01  7.230444E-02  0.000000E+00  2.449881E-02  4.389965E-03 -1.694488E-17 -1.176951E+00  0.000000E+00
  1.426070E-01  6.893921E-02  5.000000E-01  1.440472E-01  6.957478E-02  0.000000E+00  2.528831E-02  5.463539E-03 -1.617750E-17 -1.167624E+00  0.000000E+00
  1.295900E-01  6.588199E-02  5.000000E-01  1.308987E-01  6.648669E-02  0.000000E+00  2.580459E-02  6.576329E-03 -1.929347E-17 -1.136066E+00  0.000000E+00
  1.173060E-01  6.250995E-02  5.000000E-01  1.184907E-01  6.308059E-02  0.000000E+00  2.600906E-02  7.667161E-03 -2.136583E-17 -1.083327E+00  0.000000E+00
  1.057600E-01  5.887332E-02  5.000000E-01  1.068281E-01  5.940723E-02  0.000000E+00  2.590228E-02  8.684574E-03 -2.023866E-17 -1.011632E+00  0.000000E+00
  9.495290E-02  5.502872E-02  5.000000E-01  9.591182E-02  5.552380E-02  0.000000E+00  2.551813E-02  9.588584E-03 -2.391751E-17 -9.246373E-01  0.000000E+00
  8.487680E-02  5.103727E-02  5.000000E-01  8.573396E-02  5.149204E-02  0.000000E+00  2.491403E-02  1.035712E-02 -2.701279E-17 -8.256081E-01  0.000000E+00
  8.487680E-02  5.103727E-02  5.000000E-01  8.573396E-02  5.149204E-02  0.000000E+00  2.491403E-02  1.035712E-02 -2.701279E-17 -8.256081E-01  0.000000E+00
  7.552090E-02  4.696042E-02  5.000000E-01  7.628358E-02  4.737403E-02  0.000000E+00  2.414067E-02  1.097930E-02 -2.890108E-17 -7.157054E-01  0.000000E+00
  6.687020E-02  4.285667E-02  5.000000E-01  6.754551E-02  4.322883E-02  0.000000E+00  2.322227E-02  1.142521E-02 -3.225056E-17 -5.975924E-01  0.000000E+00
  5.889940E-02  3.878950E-02  5.000000E-01  5.949422E-02  3.912059E-02  0.000000E+00  2.219264E-02  1.165974E-02 -3.191103E-17 -4.783006E-01  0.000000E+00
  5.157140E-02  3.482326E-02  5.000000E-01  5.209221E-02  3.511430E-02  0.000000E+00  2.114119E-02  1.170747E-02 -2.731327E-17 -3.659946E-01  0.000000E+00
  4.484650E-02  3.101065E-02  5.000000E-01  4.529940E-02  3.126318E-02  0.000000E+00  2.020425E-02  1.168484E-02 -2.236691E-17 -2.648963E-01  0.000000E+00
  3.869820E-02  2.738192E-02  5.000000E-01  3.908901E-02  2.759781E-02  0.000000E+00  1.951255E-02  1.175357E-02 -3.759261E-17 -1.740188E-01  0.000000E+00
  3.311550E-02  2.394883E-02  5.000000E-01  3.344993E-02  2.413004E-02  0.000000E+00  1.912533E-02  1.202978E-02 -8.408835E-17 -8.810402E-02  0.000000E+00
  2.809130E-02  2.071871E-02  5.000000E-01  2.837499E-02  2.086730E-02  0.000000E+00  1.889788E-02  1.247621E-02 -1.517184E-16  8.194916E-03  0.000000E+00
  2.362330E-02  1.769553E-02  5.000000E-01  2.386187E-02  1.781359E-02  0.000000E+00  1.844021E-02  1.274041E-02 -2.255717E-16  1.250010E-01  0.000000E+00
  1.966610E-02  1.490324E-02  5.000000E-01  1.986471E-02  1.499311E-02  0.000000E+00  1.753878E-02  1.234056E-02 -2.407299E-16  2.365530E-01  0.000000E+00
  1.609460E-02  1.239499E-02  5.000000E-01  1.625714E-02  1.245952E-02  0.000000E+00  1.651133E-02  1.137249E-02 -3.192300E-18  3.156443E-01  0.000000E+00
  1.282740E-02  1.019010E-02  5.000000E-01  1.295694E-02  1.023237E-02  0.000000E+00  1.593138E-02  1.053714E-02  8.946198E-16  3.648402E-01  0.000000E+00
  9.860990E-03  8.269305E-03  5.000000E-01  9.960576E-03  8.292174E-03  0.000000E+00  1.620306E-02  1.047318E-02  3.009188E-15  4.021646E-01  0.000000E+00
  7.251350E-03  6.586988E-03  5.000000E-01  7.324582E-03  6.592868E-03  0.000000E+00  1.740989E-02  1.143473E-02  6.298172E-15  4.421771E-01  0.000000E+00
  5.038810E-03  5.110003E-03  5.000000E-01  5.089697E-03  5.100967E-03  0.000000E+00  1.944835E-02  1.348983E-02  7.834640E-15  4.875314E-01  0.000000E+00
  3.239710E-03  3.821458E-03  5.000000E-01  3.272429E-03  3.799409E-03  0.000000E+00  2.197443E-02  1.678709E-02 -3.049637E-15  5.449043E-01  0.000000E+00
  1.861880E-03  2.712210E-03  5.000000E-01  1.880684E-03  2.678958E-03  0.000000E+00  2.372878E-02  2.113094E-02 -4.970332E-14  6.310511E-01  0.000000E+00
  9.013910E-04  1.781305E-03  5.000000E-01  9.104951E-04  1.738653E-03  0.000000E+00  2.171249E-02  2.431436E-02 -1.592520E-13  7.675768E-01  0.000000E+00
  3.295630E-04  1.037066E-03  5.000000E-01  3.328923E-04  9.868975E-04  0.000000E+00  1.312492E-02  1.967046E-02 -3.262702E-13  9.384007E-01  0.000000E+00
  7.194000E-05  4.946645E-04  5.000000E-01  7.266764E-05  4.390186E-04  0.000000E+00  2.332814E-03  4.333498E-04 -4.796413E-13  1.022992E+00  0.000000E+00
  4.516100E-06  1.683504E-04  5.000000E-01  4.562832E-06  1.094091E-04  0.000000E+00 -2.265296E-03 -2.161586E-02 -5.305432E-13  9.270057E-01  0.000000E+00
 -1.112850E-09  6.003515E-05  5.000000E-01  0.000000E+00  0.000000E+00  0.000000E+00 -1.308415E-03 -2.258300E-02 -5.119321E-13  8.271690E-01  0.000000E+00