 Title = "ADflow Slice Data"
Variables =  "CoordinateX"  "CoordinateY"  "CoordinateZ"  "XoC"  "YoC"  "ZoC" "VelocityX" "VelocityY" "VelocityZ" "CoefPressure" "Mach" 
Zone T= "Slice_0001 None Absolute Regular z = 0.50000000"
 Nodes =          192  Elements=          184  ZONETYPE=FELINESEG
 DATAPACKING=POINT
  5.566560E-01  2.883624E-02  5.000000E-01  5.622776E-01  2.907269E-02  0.000000E+00  7.488009E-03  3.623684E-05  1.988939E-18  2.951811E-01  0.000000E+00
  5.776220E-01  2.887071E-02  5.000000E-01  5.834553E-01  2.910751E-02  0.000000E+00  7.497900E-03 -1.146329E-05  3.995015E-19  2.946153E-01  0.000000E+00
  5.983370E-01  2.877340E-02  5.000000E-01  6.043795E-01  2.900922E-02  0.000000E+00  7.515422E-03 -5.870952E-05 -7.659181E-19  2.935513E-01  0.000000E+00
  6.187480E-01  2.855049E-02  5.000000E-01  6.249966E-01  2.878406E-02  0.000000E+00  7.539861E-03 -1.052843E-04  3.187366E-19  2.920059E-01  0.000000E+00
  6.388030E-01  2.820962E-02  5.000000E-01  6.452542E-01  2.843975E-02  0.000000E+00  7.570266E-03 -1.511995E-04  9.089656E-19  2.900599E-01  0.000000E+00
  6.584530E-01  2.775900E-02  5.000000E-01  6.651026E-01  2.798458E-02  0.000000E+00  7.605326E-03 -1.963608E-04  4.858496E-19  2.878017E-01  0.000000E+00
  6.776550E-01  2.720794E-02  5.000000E-01  6.844985E-01  2.742794E-02  0.000000E+00  7.642119E-03 -2.400859E-04  2.686974E-19  2.851612E-01  0.000000E+00
  6.963720E-01  2.656921E-02  5.000000E-01  7.034046E-01  2.678276E-02  0.000000E+00  7.676344E-03 -2.820053E-04 -5.565600E-21  2.822444E-01  0.000000E+00
  7.145680E-01  2.585350E-02  5.000000E-01  7.217843E-01  2.605983E-02  0.000000E+00  7.704005E-03 -3.222985E-04  2.065761E-19  2.792747E-01  0.000000E+00
  7.322140E-01  2.507121E-02  5.000000E-01  7.396085E-01  2.526964E-02  0.000000E+00  7.722311E-03 -3.607719E-04  4.165022E-20  2.763226E-01  0.000000E+00
  7.492860E-01  2.423311E-02  5.000000E-01  7.568529E-01  2.442307E-02  0.000000E+00  7.731557E-03 -3.969680E-04 -1.572389E-19  2.735166E-01  0.000000E+00
  7.657630E-01  2.334992E-02  5.000000E-01  7.734963E-01  2.353097E-02  0.000000E+00  7.736321E-03 -4.310527E-04 -1.802077E-19  2.707351E-01  0.000000E+00
  7.816300E-01  2.243175E-02  5.000000E-01  7.895236E-01  2.260352E-02  0.000000E+00  7.747726E-03 -4.679483E-04  5.157580E-19  2.680509E-01  0.000000E+00
  7.968740E-01  2.147373E-02  5.000000E-01  8.049215E-01  2.163583E-02  0.000000E+00  7.790459E-03 -5.190661E-04 -1.677908E-19  2.665015E-01  0.000000E+00
  8.114890E-01  2.044580E-02  5.000000E-01  8.196841E-01  2.059752E-02  0.000000E+00  7.889524E-03 -5.882643E-04 -7.462873E-19  2.648438E-01  0.000000E+00
  8.254710E-01  1.934380E-02  5.000000E-01  8.338073E-01  1.948439E-02  0.000000E+00  8.044552E-03 -6.669815E-04  9.742696E-19  2.603783E-01  0.000000E+00
  8.388180E-01  1.818309E-02  5.000000E-01  8.472891E-01  1.831196E-02  0.000000E+00  8.234806E-03 -7.460414E-04  1.390022E-18  2.529982E-01  0.000000E+00
  8.515320E-01  1.698631E-02  5.000000E-01  8.601315E-01  1.710309E-02  0.000000E+00  8.440314E-03 -8.201402E-04  1.867316E-18  2.439190E-01  0.000000E+00
  8.636180E-01  1.577628E-02  5.000000E-01  8.723396E-01  1.588084E-02  0.000000E+00  8.649085E-03 -8.870903E-04  1.555692E-18  2.340251E-01  0.000000E+00
  8.750810E-01  1.457323E-02  5.000000E-01  8.839183E-01  1.466564E-02  0.000000E+00  8.854039E-03 -9.463069E-04  2.733858E-19  2.237099E-01  0.000000E+00
  8.859290E-01  1.339337E-02  5.000000E-01  8.948759E-01  1.347387E-02  0.000000E+00  9.050722E-03 -9.980187E-04  1.406350E-19  2.132613E-01  0.000000E+00
  8.961710E-01  1.224890E-02  5.000000E-01  9.052213E-01  1.231784E-02  0.000000E+00  9.237006E-03 -1.042864E-03  1.084527E-18  2.029069E-01  0.000000E+00
  9.058170E-01  1.114893E-02  5.000000E-01  9.149647E-01  1.120676E-02  0.000000E+00  9.412504E-03 -1.081638E-03  5.593319E-19  1.927816E-01  0.000000E+00
  9.148770E-01  1.009996E-02  5.000000E-01  9.241162E-01  1.014719E-02  0.000000E+00  9.577599E-03 -1.115061E-03 -1.200750E-18  1.829446E-01  0.000000E+00
  9.148770E-01  1.009996E-02  5.000000E-01  9.241162E-01  1.014719E-02  0.000000E+00  9.577599E-03 -1.115061E-03 -1.200750E-18  1.829446E-01  0.000000E+00
  9.233640E-01  9.106499E-03  5.000000E-01  9.326889E-01  9.143703E-03  0.000000E+00  9.733126E-03 -1.143934E-03 -5.093584E-19  1.734569E-01  0.000000E+00
  9.312880E-01  8.171509E-03  5.000000E-01  9.406929E-01  8.199272E-03  0.000000E+00  9.880473E-03 -1.169083E-03  2.018130E-19  1.643680E-01  0.000000E+00
  9.386620E-01  7.296623E-03  5.000000E-01  9.481414E-01  7.315550E-03  0.000000E+00  1.002114E-02 -1.191235E-03  5.227325E-19  1.556742E-01  0.000000E+00
  9.454960E-01  6.482709E-03  5.000000E-01  9.550444E-01  6.493416E-03  0.000000E+00  1.015622E-02 -1.210913E-03  1.254870E-18  1.473464E-01  0.000000E+00
  9.518040E-01  5.729805E-03  5.000000E-01  9.614161E-01  5.732909E-03  0.000000E+00  1.028691E-02 -1.228666E-03  2.561077E-18  1.393964E-01  0.000000E+00
  9.575950E-01  5.037659E-03  5.000000E-01  9.672656E-01  5.033773E-03  0.000000E+00  1.041539E-02 -1.245130E-03  3.007148E-18  1.318143E-01  0.000000E+00
  9.628810E-01  4.405590E-03  5.000000E-01  9.726050E-01  4.395321E-03  0.000000E+00  1.054555E-02 -1.261014E-03 -2.701849E-19  1.245714E-01  0.000000E+00
  9.676710E-01  3.832789E-03  5.000000E-01  9.774434E-01  3.816735E-03  0.000000E+00  1.068415E-02 -1.277366E-03 -6.275706E-18  1.176604E-01  0.000000E+00
  9.719750E-01  3.318311E-03  5.000000E-01  9.817908E-01  3.297062E-03  0.000000E+00  1.084002E-02 -1.295339E-03 -8.112340E-18  1.110749E-01  0.000000E+00
  9.758020E-01  2.861152E-03  5.000000E-01  9.856565E-01  2.835286E-03  0.000000E+00  1.101694E-02 -1.315505E-03  3.814762E-18  1.048250E-01  0.000000E+00
  9.791590E-01  2.460380E-03  5.000000E-01  9.890474E-01  2.430466E-03  0.000000E+00  1.119348E-02 -1.335619E-03  2.571688E-17  9.877570E-02  0.000000E+00
  9.820540E-01  2.115056E-03  5.000000E-01  9.919716E-01  2.081655E-03  0.000000E+00  1.130378E-02 -1.348879E-03  3.411094E-17  9.326639E-02  0.000000E+00
  9.844930E-01  1.824364E-03  5.000000E-01  9.944353E-01  1.788028E-03  0.000000E+00  1.122531E-02 -1.337648E-03  5.153805E-18  8.918192E-02  0.000000E+00
  9.864820E-01  1.587548E-03  5.000000E-01  9.964443E-01  1.548820E-03  0.000000E+00  1.065129E-02 -1.256750E-03 -5.011156E-17  8.291136E-02  0.000000E+00
  9.880240E-01  1.404030E-03  5.000000E-01  9.980019E-01  1.363449E-03  0.000000E+00  9.100690E-03 -1.091155E-03 -1.444701E-16  6.851812E-02  0.000000E+00
  9.891220E-01  1.273295E-03  5.000000E-01  9.991110E-01  1.231393E-03  0.000000E+00  8.365488E-03 -1.109184E-03 -4.946641E-16  8.509961E-02  0.000000E+00
  9.897810E-01  1.194986E-03  5.000000E-01  9.997767E-01  1.152294E-03  0.000000E+00  1.566450E-02 -6.669146E-04 -1.367694E-15  1.786371E-01  0.000000E+00
  9.900000E-01  1.168919E-03  5.000000E-01  9.999979E-01  1.125963E-03  0.000000E+00  1.310767E-02 -1.663287E-03 -1.802340E-15 -6.162422E-02  0.000000E+00
  9.900000E-01  1.355140E-03  5.000000E-01  9.999979E-01  1.314065E-03  0.000000E+00  1.213321E-03 -1.362030E-02 -1.087057E-15 -2.044169E-01  0.000000E+00
  9.900000E-01  1.541351E-03  5.000000E-01  9.999979E-01  1.502156E-03  0.000000E+00 -7.387056E-04 -1.432263E-02 -1.860957E-16 -2.435796E-02  0.000000E+00
  9.900000E-01  1.727572E-03  5.000000E-01  9.999979E-01  1.690258E-03  0.000000E+00 -4.672299E-04  3.435405E-03  4.589114E-16 -3.363554E-02  0.000000E+00
  9.900000E-01  1.913792E-03  5.000000E-01  9.999979E-01  1.878359E-03  0.000000E+00  8.119647E-04  3.534470E-03  1.537204E-15 -1.574318E-01  0.000000E+00
  9.900000E-01  2.100013E-03  5.000000E-01  9.999979E-01  2.066460E-03  0.000000E+00  8.221953E-03 -4.605587E-03  2.402048E-15 -5.941937E-02  0.000000E+00
  9.900000E-01  2.100013E-03  5.000000E-01  9.999979E-01  2.066460E-03  0.000000E+00  8.221953E-03 -4.605587E-03  2.402048E-15 -5.941937E-02  0.000000E+00
  9.897920E-01  2.143399E-03  5.000000E-01  9.997878E-01  2.110284E-03  0.000000E+00  9.082307E-03 -2.727474E-03  1.754994E-15  8.436135E-02  0.000000E+00
  9.891660E-01  2.273464E-03  5.000000E-01  9.991554E-01  2.241662E-03  0.000000E+00  3.381767E-03 -6.133843E-04  6.165598E-16  1.273157E-02  0.000000E+00
  9.881230E-01  2.489943E-03  5.000000E-01  9.981019E-01  2.460328E-03  0.000000E+00  3.246908E-03 -6.687130E-04  9.239012E-17  1.781122E-04  0.000000E+00
  9.866580E-01  2.792421E-03  5.000000E-01  9.966221E-01  2.765861E-03  0.000000E+00  3.851718E-03 -8.016105E-04 -5.029984E-17  6.523930E-03  0.000000E+00
  9.847700E-01  3.180271E-03  5.000000E-01  9.947150E-01  3.157628E-03  0.000000E+00  4.027213E-03 -8.242809E-04 -5.368221E-17  4.572521E-03  0.000000E+00
  9.824550E-01  3.652719E-03  5.000000E-01  9.923767E-01  3.634847E-03  0.000000E+00  4.092644E-03 -8.308276E-04 -2.564643E-17 -9.044072E-04  0.000000E+00
  9.797070E-01  4.208790E-03  5.000000E-01  9.896009E-01  4.196533E-03  0.000000E+00  4.188091E-03 -8.435334E-04 -4.500720E-18 -6.984075E-03  0.000000E+00
  9.765220E-01  4.847339E-03  5.000000E-01  9.863838E-01  4.841531E-03  0.000000E+00  4.325034E-03 -8.623680E-04  3.186252E-18 -1.401517E-02  0.000000E+00
  9.728930E-01  5.567052E-03  5.000000E-01  9.827181E-01  5.568512E-03  0.000000E+00  4.502143E-03 -8.873113E-04  3.456858E-18 -2.207696E-02  0.000000E+00
  9.688130E-01  6.366412E-03  5.000000E-01  9.785969E-01  6.375945E-03  0.000000E+00  4.713223E-03 -9.170114E-04  1.215352E-18 -3.097801E-02  0.000000E+00
  9.642740E-01  7.243765E-03  5.000000E-01  9.740121E-01  7.262158E-03  0.000000E+00  4.948319E-03 -9.492144E-04 -1.216537E-18 -4.053296E-02  0.000000E+00
  9.592670E-01  8.197294E-03  5.000000E-01  9.689545E-01  8.225317E-03  0.000000E+00  5.198498E-03 -9.820603E-04 -8.468335E-19 -5.066328E-02  0.000000E+00
  9.537850E-01  9.225035E-03  5.000000E-01  9.634171E-01  9.263437E-03  0.000000E+00  5.457377E-03 -1.014113E-03  1.637030E-18 -6.120838E-02  0.000000E+00
  9.478160E-01  1.032490E-02  5.000000E-01  9.573879E-01  1.037440E-02  0.000000E+00  5.719939E-03 -1.044361E-03  1.331245E-18 -7.205772E-02  0.000000E+00
  9.413520E-01  1.149479E-02  5.000000E-01  9.508586E-01  1.155611E-02  0.000000E+00  5.982392E-03 -1.072165E-03 -4.510513E-19 -8.310551E-02  0.000000E+00
  9.343800E-01  1.273260E-02  5.000000E-01  9.438162E-01  1.280643E-02  0.000000E+00  6.241360E-03 -1.097041E-03  7.854218E-20 -9.422165E-02  0.000000E+00
  9.268920E-01  1.403606E-02  5.000000E-01  9.362525E-01  1.412304E-02  0.000000E+00  6.493774E-03 -1.118685E-03 -3.216720E-19 -1.053379E-01  0.000000E+00
  9.188750E-01  1.540330E-02  5.000000E-01  9.281546E-01  1.550409E-02  0.000000E+00  6.736936E-03 -1.136921E-03 -1.254970E-18 -1.163427E-01  0.000000E+00
  9.103190E-01  1.683249E-02  5.000000E-01  9.195122E-01  1.694772E-02  0.000000E+00  6.968203E-03 -1.151760E-03 -1.432005E-19 -1.271743E-01  0.000000E+00
  9.012130E-01  1.832219E-02  5.000000E-01  9.103142E-01  1.845247E-02  0.000000E+00  7.185308E-03 -1.163271E-03  1.344436E-18 -1.377675E-01  0.000000E+00
  8.915460E-01  1.987129E-02  5.000000E-01  9.005496E-01  2.001721E-02  0.000000E+00  7.386404E-03 -1.171772E-03  1.495250E-18 -1.481072E-01  0.000000E+00
  8.813080E-01  2.147941E-02  5.000000E-01  8.902082E-01  2.164157E-02  0.000000E+00  7.570354E-03 -1.177772E-03  1.819409E-19 -1.581965E-01  0.000000E+00
  8.704900E-01  2.314665E-02  5.000000E-01  8.792810E-01  2.332565E-02  0.000000E+00  7.736693E-03 -1.181882E-03 -4.435775E-19 -1.680557E-01  0.000000E+00
  8.704900E-01  2.314665E-02  5.000000E-01  8.792810E-01  2.332565E-02  0.000000E+00  7.736693E-03 -1.181882E-03 -4.435775E-19 -1.680557E-01  0.000000E+00
  8.590830E-01  2.487410E-02  5.000000E-01  8.677588E-01  2.507054E-02  0.000000E+00  7.885974E-03 -1.185072E-03 -2.382160E-19 -1.777986E-01  0.000000E+00
  8.470810E-01  2.666401E-02  5.000000E-01  8.556355E-01  2.687852E-02  0.000000E+00  8.020536E-03 -1.188430E-03 -9.387320E-19 -1.876080E-01  0.000000E+00
  8.344780E-01  2.851957E-02  5.000000E-01  8.429053E-01  2.875282E-02  0.000000E+00  8.144614E-03 -1.192983E-03 -1.621259E-18 -1.976965E-01  0.000000E+00
  8.212700E-01  3.044439E-02  5.000000E-01  8.295639E-01  3.069708E-02  0.000000E+00  8.264637E-03 -1.199675E-03 -2.070823E-18 -2.084328E-01  0.000000E+00
  8.074550E-01  3.244174E-02  5.000000E-01  8.156094E-01  3.271460E-02  0.000000E+00  8.390069E-03 -1.209114E-03 -1.741729E-18 -2.203107E-01  0.000000E+00
  7.930350E-01  3.451291E-02  5.000000E-01  8.010437E-01  3.480669E-02  0.000000E+00  8.531648E-03 -1.220812E-03 -5.668152E-20 -2.335237E-01  0.000000E+00
  7.780130E-01  3.665449E-02  5.000000E-01  7.858700E-01  3.696990E-02  0.000000E+00  8.696045E-03 -1.233011E-03 -3.890473E-19 -2.477384E-01  0.000000E+00
  7.623950E-01  3.885719E-02  5.000000E-01  7.700943E-01  3.919484E-02  0.000000E+00  8.883314E-03 -1.244487E-03 -1.027674E-18 -2.627816E-01  0.000000E+00
  7.461930E-01  4.111188E-02  5.000000E-01  7.537287E-01  4.147231E-02  0.000000E+00  9.090641E-03 -1.254806E-03 -1.114882E-18 -2.786970E-01  0.000000E+00
  7.294180E-01  4.340881E-02  5.000000E-01  7.367843E-01  4.379243E-02  0.000000E+00  9.314883E-03 -1.263345E-03 -2.851051E-19 -2.953682E-01  0.000000E+00
  7.120900E-01  4.573692E-02  5.000000E-01  7.192813E-01  4.614405E-02  0.000000E+00  9.552421E-03 -1.269176E-03  1.104424E-18 -3.126540E-01  0.000000E+00
  6.942280E-01  4.808411E-02  5.000000E-01  7.012389E-01  4.851494E-02  0.000000E+00  9.799517E-03 -1.271517E-03  1.182483E-18 -3.304216E-01  0.000000E+00
  6.758590E-01  5.043788E-02  5.000000E-01  6.826844E-01  5.089248E-02  0.000000E+00  1.005256E-02 -1.269985E-03  1.462700E-18 -3.485367E-01  0.000000E+00
  6.570120E-01  5.278577E-02  5.000000E-01  6.636471E-01  5.326408E-02  0.000000E+00  1.030833E-02 -1.264503E-03  7.054523E-19 -3.669060E-01  0.000000E+00
  6.377220E-01  5.511609E-02  5.000000E-01  6.441623E-01  5.561794E-02  0.000000E+00  1.056476E-02 -1.255537E-03 -1.645705E-19 -3.856087E-01  0.000000E+00
  6.180260E-01  5.741902E-02  5.000000E-01  6.242674E-01  5.794413E-02  0.000000E+00  1.082212E-02 -1.243601E-03 -4.608612E-19 -4.048106E-01  0.000000E+00
  5.979670E-01  5.968460E-02  5.000000E-01  6.040058E-01  6.023259E-02  0.000000E+00  1.108318E-02 -1.228886E-03 -1.207245E-18 -4.247592E-01  0.000000E+00
  5.775910E-01  6.190252E-02  5.000000E-01  5.834240E-01  6.247290E-02  0.000000E+00  1.135285E-02 -1.211274E-03 -8.539481E-19 -4.457435E-01  0.000000E+00
  5.569470E-01  6.406149E-02  5.000000E-01  5.625715E-01  6.465367E-02  0.000000E+00  1.163669E-02 -1.189827E-03  7.781470E-20 -4.678156E-01  0.000000E+00
  5.360860E-01  6.614693E-02  5.000000E-01  5.414999E-01  6.676018E-02  0.000000E+00  1.193832E-02 -1.163137E-03  8.754882E-20 -4.908879E-01  0.000000E+00
  5.150640E-01  6.814294E-02  5.000000E-01  5.202656E-01  6.877635E-02  0.000000E+00  1.225863E-02 -1.130056E-03 -7.133690E-19 -5.149249E-01  0.000000E+00
  4.939370E-01  7.003354E-02  5.000000E-01  4.989252E-01  7.068604E-02  0.000000E+00  1.259683E-02 -1.089622E-03 -9.632951E-19 -5.398792E-01  0.000000E+00
  4.727610E-01  7.180354E-02  5.000000E-01  4.775353E-01  7.247391E-02  0.000000E+00  1.295116E-02 -1.040948E-03  8.460874E-19 -5.656663E-01  0.000000E+00
  5.770140E-06 -5.776680E-05  5.000000E-01  5.829536E-06 -1.131107E-04  0.000000E+00  2.838114E-03 -1.594840E-02 -5.828470E-13  9.231663E-01  0.000000E+00
  9.104010E-05 -3.881260E-04  5.000000E-01  9.196062E-05 -4.468061E-04  0.000000E+00  1.781434E-02 -3.017909E-02 -5.067944E-13  9.469037E-01  0.000000E+00
  4.796980E-04 -8.971728E-04  5.000000E-01  4.845435E-04 -9.609937E-04  0.000000E+00  3.612251E-02 -3.187071E-02 -3.399323E-13  6.586677E-01  0.000000E+00
  1.456590E-03 -1.481817E-03  5.000000E-01  1.471301E-03 -1.551542E-03  0.000000E+00  4.044748E-02 -1.952534E-02 -1.654287E-13  3.299462E-01  0.000000E+00
  3.096410E-03 -2.042040E-03  5.000000E-01  3.127681E-03 -2.117423E-03  0.000000E+00  3.394597E-02 -9.950219E-03 -5.143661E-14  2.045226E-01  0.000000E+00
  5.335170E-03 -2.556384E-03  5.000000E-01  5.389050E-03 -2.636961E-03  0.000000E+00  2.752758E-02 -5.507310E-03 -2.611727E-15  1.769807E-01  0.000000E+00
  8.129670E-03 -3.019013E-03  5.000000E-01  8.211771E-03 -3.104262E-03  0.000000E+00  2.344608E-02 -3.361357E-03  8.282819E-15  1.489324E-01  0.000000E+00
  1.145600E-02 -3.411963E-03  5.000000E-01  1.157169E-02 -3.501180E-03  0.000000E+00  2.029375E-02 -1.912230E-03  5.870978E-15  1.088284E-01  0.000000E+00
  1.529970E-02 -3.668309E-03  5.000000E-01  1.545421E-02 -3.760115E-03  0.000000E+00  1.690884E-02 -6.739134E-04  2.206592E-15  6.680636E-02  0.000000E+00
  1.962420E-02 -3.695365E-03  5.000000E-01  1.982238E-02 -3.787445E-03  0.000000E+00  1.336410E-02  1.553409E-04  3.416168E-16  5.488458E-02  0.000000E+00
  2.439810E-02 -3.515327E-03  5.000000E-01  2.464449E-02 -3.605588E-03  0.000000E+00  1.094579E-02  4.067996E-04 -1.535547E-16  1.043346E-01  0.000000E+00
  2.966100E-02 -3.319866E-03  5.000000E-01  2.996054E-02 -3.408154E-03  0.000000E+00  1.047100E-02  3.412822E-04 -1.390763E-16  1.669024E-01  0.000000E+00
  3.543640E-02 -3.172561E-03  5.000000E-01  3.579427E-02 -3.259361E-03  0.000000E+00  1.116762E-02  2.490992E-04 -5.292587E-17  1.828988E-01  0.000000E+00
  4.172970E-02 -3.053927E-03  5.000000E-01  4.215112E-02 -3.139528E-03  0.000000E+00  1.189737E-02  2.224303E-04 -5.971845E-18  1.672025E-01  0.000000E+00
  4.854440E-02 -2.924760E-03  5.000000E-01  4.903464E-02 -3.009057E-03  0.000000E+00  1.220116E-02  2.758984E-04  7.061493E-18  1.467492E-01  0.000000E+00
  5.588220E-02 -2.730358E-03  5.000000E-01  5.644655E-02 -2.812692E-03  0.000000E+00  1.213992E-02  3.726770E-04  5.857989E-18  1.331784E-01  0.000000E+00
  6.375220E-02 -2.453271E-03  5.000000E-01  6.439603E-02 -2.532807E-03  0.000000E+00  1.194429E-02  4.565620E-04  3.070328E-18  1.296814E-01  0.000000E+00
  7.217040E-02 -2.105043E-03  5.000000E-01  7.289924E-02 -2.181062E-03  0.000000E+00  1.179855E-02  5.067703E-04  1.437597E-18  1.317447E-01  0.000000E+00
  8.115500E-02 -1.705566E-03  5.000000E-01  8.197457E-02 -1.777551E-03  0.000000E+00  1.175052E-02  5.378624E-04  1.079254E-19  1.328227E-01  0.000000E+00
  9.072040E-02 -1.256539E-03  5.000000E-01  9.163657E-02 -1.323989E-03  0.000000E+00  1.174778E-02  5.715418E-04  7.690921E-19  1.298157E-01  0.000000E+00
  1.008780E-01 -7.451307E-04  5.000000E-01  1.018968E-01 -8.074162E-04  0.000000E+00  1.172821E-02  6.155600E-04  1.315208E-18  1.248361E-01  0.000000E+00
  1.116380E-01 -1.567999E-04  5.000000E-01  1.127654E-01 -2.131439E-04  0.000000E+00  1.165955E-02  6.697226E-04  1.073392E-18  1.203756E-01  0.000000E+00
  1.230100E-01  5.281552E-04  5.000000E-01  1.242523E-01  4.787284E-04  0.000000E+00  1.152117E-02  7.331244E-04  1.640613E-18  1.172113E-01  0.000000E+00
  1.350030E-01  1.332651E-03  5.000000E-01  1.363664E-01  1.291349E-03  0.000000E+00  1.129104E-02  8.029002E-04  2.534460E-18  1.159994E-01  0.000000E+00
  1.350030E-01  1.332651E-03  5.000000E-01  1.363664E-01  1.291349E-03  0.000000E+00  1.129104E-02  8.029002E-04  2.534460E-18  1.159994E-01  0.000000E+00
  1.476220E-01  2.282086E-03  5.000000E-01  1.491128E-01  2.250372E-03  0.000000E+00  1.095290E-02  8.740503E-04  1.977615E-18  1.177640E-01  0.000000E+00
  1.608730E-01  3.402368E-03  5.000000E-01  1.624976E-01  3.381968E-03  0.000000E+00  1.050881E-02  9.398573E-04  1.214981E-18  1.236976E-01  0.000000E+00
  1.747560E-01  4.715457E-03  5.000000E-01  1.765208E-01  4.708317E-03  0.000000E+00  9.986475E-03  9.916624E-04  1.321385E-18  1.346085E-01  0.000000E+00
  1.892730E-01  6.229155E-03  5.000000E-01  1.911844E-01  6.237301E-03  0.000000E+00  9.438900E-03  1.017303E-03  3.629157E-19  1.506676E-01  0.000000E+00
  2.044180E-01  7.919512E-03  5.000000E-01  2.064824E-01  7.944729E-03  0.000000E+00  8.943786E-03  1.003530E-03  9.358746E-20  1.726596E-01  0.000000E+00
  2.201880E-01  9.700599E-03  5.000000E-01  2.224116E-01  9.743804E-03  0.000000E+00  8.566374E-03  9.548688E-04  6.524269E-19  1.973796E-01  0.000000E+00
  2.365750E-01  1.149938E-02  5.000000E-01  2.389641E-01  1.156075E-02  0.000000E+00  8.308635E-03  8.924690E-04  5.435282E-19  2.179977E-01  0.000000E+00
  2.535710E-01  1.328172E-02  5.000000E-01  2.561318E-01  1.336109E-02  0.000000E+00  8.131004E-03  8.287460E-04  4.184354E-19  2.330173E-01  0.000000E+00
  2.711570E-01  1.502189E-02  5.000000E-01  2.738954E-01  1.511883E-02  0.000000E+00  8.002790E-03  7.653059E-04  1.493702E-18  2.448882E-01  0.000000E+00
  2.893100E-01  1.669760E-02  5.000000E-01  2.922317E-01  1.681147E-02  0.000000E+00  7.911610E-03  7.020369E-04  1.372508E-18  2.550462E-01  0.000000E+00
  3.080020E-01  1.828872E-02  5.000000E-01  3.111125E-01  1.841865E-02  0.000000E+00  7.847693E-03  6.407706E-04  3.226428E-19  2.632872E-01  0.000000E+00
  3.271950E-01  1.978800E-02  5.000000E-01  3.304993E-01  1.993307E-02  0.000000E+00  7.797242E-03  5.834907E-04 -1.566338E-19  2.693884E-01  0.000000E+00
  3.468470E-01  2.119376E-02  5.000000E-01  3.503498E-01  2.135303E-02  0.000000E+00  7.750190E-03  5.295138E-04 -8.550024E-19  2.742477E-01  0.000000E+00
  3.669110E-01  2.250018E-02  5.000000E-01  3.706164E-01  2.267265E-02  0.000000E+00  7.703910E-03  4.776851E-04 -8.131155E-19  2.785580E-01  0.000000E+00
  3.873360E-01  2.370267E-02  5.000000E-01  3.912477E-01  2.388728E-02  0.000000E+00  7.658748E-03  4.275455E-04  2.672271E-19  2.823079E-01  0.000000E+00
  4.080670E-01  2.479636E-02  5.000000E-01  4.121880E-01  2.499201E-02  0.000000E+00  7.616205E-03  3.779611E-04 -1.569535E-18  2.856270E-01  0.000000E+00
  4.290470E-01  2.577166E-02  5.000000E-01  4.333799E-01  2.597716E-02  0.000000E+00  7.578936E-03  3.279630E-04 -2.249287E-18  2.886302E-01  0.000000E+00
  4.502140E-01  2.661923E-02  5.000000E-01  4.547606E-01  2.683329E-02  0.000000E+00  7.548524E-03  2.778697E-04  4.144531E-20  2.911061E-01  0.000000E+00
  4.715070E-01  2.733378E-02  5.000000E-01  4.762687E-01  2.755506E-02  0.000000E+00  7.524344E-03  2.285308E-04  4.797274E-19  2.928680E-01  0.000000E+00
  4.928620E-01  2.791403E-02  5.000000E-01  4.978393E-01  2.814117E-02  0.000000E+00  7.505378E-03  1.801456E-04  2.778124E-20  2.940246E-01  0.000000E+00
  5.142140E-01  2.835882E-02  5.000000E-01  5.194070E-01  2.859045E-02  0.000000E+00  7.492155E-03  1.321461E-04  1.115617E-19  2.948104E-01  0.000000E+00
  5.355000E-01  2.866626E-02  5.000000E-01  5.409079E-01  2.890100E-02  0.000000E+00  7.486102E-03  8.415553E-05  1.691615E-18  2.952365E-01  0.000000E+00
  5.566560E-01  2.883624E-02  5.000000E-01  5.622776E-01  2.907269E-02  0.000000E+00  7.488009E-03  3.623684E-05  1.988939E-18  2.951811E-01  0.000000E+00
  4.727610E-01  7.180354E-02  5.000000E-01  4.775353E-01  7.247391E-02  0.000000E+00  1.295116E-02 -1.040948E-03  8.460874E-19 -5.656663E-01  0.000000E+00
  4.515970E-01  7.343848E-02  5.000000E-01  4.561576E-01  7.412536E-02  0.000000E+00  1.331917E-02 -9.831231E-04  1.939226E-18 -5.920943E-01  0.000000E+00
  4.305020E-01  7.492515E-02  5.000000E-01  4.348496E-01  7.562705E-02  0.000000E+00  1.369813E-02 -9.157214E-04  1.201264E-18 -6.191584E-01  0.000000E+00
  4.095340E-01  7.625284E-02  5.000000E-01  4.136698E-01  7.696815E-02  0.000000E+00  1.408810E-02 -8.392712E-04  5.779564E-19 -6.474528E-01  0.000000E+00
  3.887520E-01  7.741484E-02  5.000000E-01  3.926780E-01  7.814188E-02  0.000000E+00  1.449554E-02 -7.530469E-04  7.957621E-20 -6.776501E-01  0.000000E+00
  3.682080E-01  7.840274E-02  5.000000E-01  3.719265E-01  7.913976E-02  0.000000E+00  1.493114E-02 -6.535081E-04 -3.072394E-19 -7.099354E-01  0.000000E+00
  3.479570E-01  7.920410E-02  5.000000E-01  3.514710E-01  7.994921E-02  0.000000E+00  1.540413E-02 -5.359438E-04 -3.736102E-19 -7.442312E-01  0.000000E+00
  3.280470E-01  7.980438E-02  5.000000E-01  3.313599E-01  8.055556E-02  0.000000E+00  1.592036E-02 -3.965322E-04  7.423379E-20 -7.805362E-01  0.000000E+00
  3.085240E-01  8.019149E-02  5.000000E-01  3.116397E-01  8.094657E-02  0.000000E+00  1.648307E-02 -2.312772E-04  7.305197E-20 -8.185419E-01  0.000000E+00
  2.894320E-01  8.035291E-02  5.000000E-01  2.923549E-01  8.110963E-02  0.000000E+00  1.709176E-02 -3.485271E-05 -1.430617E-18 -8.578109E-01  0.000000E+00
  2.708110E-01  8.027621E-02  5.000000E-01  2.735459E-01  8.103215E-02  0.000000E+00  1.774699E-02  1.977638E-04 -2.210614E-18 -8.995663E-01  0.000000E+00
  2.526960E-01  7.995070E-02  5.000000E-01  2.552479E-01  8.070335E-02  0.000000E+00  1.847025E-02  4.731665E-04 -2.958154E-18 -9.472667E-01  0.000000E+00
  2.351200E-01  7.936939E-02  5.000000E-01  2.374944E-01  8.011617E-02  0.000000E+00  1.931148E-02  8.161583E-04 -3.391631E-18 -1.001129E+00  0.000000E+00
  2.181120E-01  7.850164E-02  5.000000E-01  2.203147E-01  7.923966E-02  0.000000E+00  2.030045E-02  1.271376E-03 -3.420237E-18 -1.054537E+00  0.000000E+00
  2.017010E-01  7.729376E-02  5.000000E-01  2.037379E-01  7.801958E-02  0.000000E+00  2.139446E-02  1.862168E-03 -2.516355E-18 -1.101964E+00  0.000000E+00
  1.859190E-01  7.571839E-02  5.000000E-01  1.877966E-01  7.642830E-02  0.000000E+00  2.251325E-02  2.583575E-03 -7.078321E-19 -1.141490E+00  0.000000E+00
  1.707920E-01  7.376705E-02  5.000000E-01  1.725168E-01  7.445725E-02  0.000000E+00  2.358638E-02  3.432214E-03 -5.555894E-19 -1.169453E+00  0.000000E+00
  1.563470E-01  7.143702E-02  5.000000E-01  1.579259E-01  7.210369E-02  0.000000E+00  2.454476E-02  4.402269E-03 -8.155146E-19 -1.180676E+00  0.000000E+00
  1.426070E-01  6.873409E-02  5.000000E-01  1.440472E-01  6.937346E-02  0.000000E+00  2.531138E-02  5.465854E-03 -1.623824E-18 -1.171257E+00  0.000000E+00
  1.295900E-01  6.567991E-02  5.000000E-01  1.308987E-01  6.628844E-02  0.000000E+00  2.581697E-02  6.570325E-03 -4.501308E-18 -1.140069E+00  0.000000E+00
  1.173060E-01  6.231365E-02  5.000000E-01  1.184907E-01  6.288819E-02  0.000000E+00  2.602221E-02  7.656432E-03 -3.924007E-18 -1.087975E+00  0.000000E+00
  1.057600E-01  5.868460E-02  5.000000E-01  1.068281E-01  5.922249E-02  0.000000E+00  2.592395E-02  8.673161E-03  2.749287E-19 -1.017025E+00  0.000000E+00
  9.495290E-02  5.484858E-02  5.000000E-01  9.591182E-02  5.534773E-02  0.000000E+00  2.555173E-02  9.579797E-03  1.447465E-18 -9.307546E-01  0.000000E+00
  8.487680E-02  5.086613E-02  5.000000E-01  8.573396E-02  5.132506E-02  0.000000E+00  2.495954E-02  1.035296E-02  4.682373E-18 -8.323468E-01  0.000000E+00
  8.487680E-02  5.086613E-02  5.000000E-01  8.573396E-02  5.132506E-02  0.000000E+00  2.495954E-02  1.035296E-02  4.682373E-18 -8.323468E-01  0.000000E+00
  7.552090E-02  4.679834E-02  5.000000E-01  7.628358E-02  4.721618E-02  0.000000E+00  2.419571E-02  1.098033E-02  1.115548E-17 -7.229092E-01  0.000000E+00
  6.687020E-02  4.270347E-02  5.000000E-01  6.754551E-02  4.307997E-02  0.000000E+00  2.328300E-02  1.143044E-02  1.450404E-17 -6.051049E-01  0.000000E+00
  5.889940E-02  3.864504E-02  5.000000E-01  5.949422E-02  3.898055E-02  0.000000E+00  2.225469E-02  1.166687E-02  1.238677E-17 -4.860372E-01  0.000000E+00
  5.157140E-02  3.468757E-02  5.000000E-01  5.209221E-02  3.498311E-02  0.000000E+00  2.120095E-02  1.171377E-02  8.494266E-18 -3.739766E-01  0.000000E+00
  4.484650E-02  3.088392E-02  5.000000E-01  4.529940E-02  3.114106E-02  0.000000E+00  2.026005E-02  1.168843E-02  5.992272E-18 -2.732259E-01  0.000000E+00
  3.869820E-02  2.726441E-02  5.000000E-01  3.908901E-02  2.748499E-02  0.000000E+00  1.956510E-02  1.175417E-02 -2.642619E-18 -1.828189E-01  0.000000E+00
  3.311550E-02  2.384066E-02  5.000000E-01  3.344993E-02  2.402666E-02  0.000000E+00  1.917693E-02  1.202832E-02 -2.178689E-17 -9.743063E-02  0.000000E+00
  2.809130E-02  2.061991E-02  5.000000E-01  2.837499E-02  2.077339E-02  0.000000E+00  1.894890E-02  1.247273E-02 -5.117756E-17 -1.500000E-03  0.000000E+00
  2.362330E-02  1.760596E-02  5.000000E-01  2.386187E-02  1.772900E-02  0.000000E+00  1.848367E-02  1.272986E-02 -1.036659E-16  1.152415E-01  0.000000E+00
  1.966610E-02  1.482287E-02  5.000000E-01  1.986471E-02  1.491781E-02  0.000000E+00  1.755991E-02  1.231126E-02 -1.689180E-16  2.267181E-01  0.000000E+00
  1.609460E-02  1.232431E-02  5.000000E-01  1.625714E-02  1.239401E-02  0.000000E+00  1.649553E-02  1.131338E-02 -9.829078E-17  3.052448E-01  0.000000E+00
  1.282740E-02  1.012977E-02  5.000000E-01  1.295694E-02  1.017731E-02  0.000000E+00  1.587393E-02  1.044568E-02  5.672105E-16  3.531751E-01  0.000000E+00
  9.860990E-03  8.219645E-03  5.000000E-01  9.960576E-03  8.247893E-03  0.000000E+00  1.611486E-02  1.035528E-02  2.565154E-15  3.886138E-01  0.000000E+00
  7.251350E-03  6.547637E-03  5.000000E-01  7.324581E-03  6.559000E-03  0.000000E+00  1.731827E-02  1.130340E-02  5.915227E-15  4.262902E-01  0.000000E+00
  5.038810E-03  5.080063E-03  5.000000E-01  5.089697E-03  5.076605E-03  0.000000E+00  1.940285E-02  1.337364E-02  7.001099E-15  4.688573E-01  0.000000E+00
  3.239710E-03  3.799666E-03  5.000000E-01  3.272428E-03  3.783278E-03  0.000000E+00  2.207002E-02  1.676091E-02 -5.923824E-15  5.229054E-01  0.000000E+00
  1.861880E-03  2.697005E-03  5.000000E-01  1.880684E-03  2.669481E-03  0.000000E+00  2.413607E-02  2.139160E-02 -5.456697E-14  6.054013E-01  0.000000E+00
  9.013910E-04  1.770898E-03  5.000000E-01  9.104951E-04  1.734021E-03  0.000000E+00  2.263884E-02  2.531005E-02 -1.609317E-13  7.395712E-01  0.000000E+00
  3.295630E-04  1.029600E-03  5.000000E-01  3.328923E-04  9.852376E-04  0.000000E+00  1.455794E-02  2.214719E-02 -3.216866E-13  9.136588E-01  0.000000E+00
  7.194000E-05  4.885260E-04  5.000000E-01  7.266764E-05  4.386991E-04  0.000000E+00  3.731278E-03  4.997870E-03 -4.838590E-13  1.011315E+00  0.000000E+00
  4.516100E-06  1.625264E-04  5.000000E-01  4.562832E-06  1.094073E-04  0.000000E+00 -1.505289E-03 -1.547616E-02 -5.703933E-13  9.326897E-01  0.000000E+00
 -1.112850E-09  5.421302E-05  5.000000E-01  0.000000E+00  0.000000E+00  0.000000E+00 -1.282365E-03 -1.628287E-02 -5.880099E-13  8.395714E-01  0.000000E+00