 Title = "ADflow Slice Data"
Variables =  "CoordinateX"  "CoordinateY"  "CoordinateZ"  "XoC"  "YoC"  "ZoC" "VelocityX" "VelocityY" "VelocityZ" "CoefPressure" "Mach" 
Zone T= "Slice_0001 None Absolute Regular z = 0.50000000"
 Nodes =          192  Elements=          184  ZONETYPE=FELINESEG
 DATAPACKING=POINT
  5.566560E-01  2.995990E-02  5.000000E-01  5.622776E-01  3.020185E-02  0.000000E+00  7.407689E-03  2.024218E-05 -2.575960E-18  3.018517E-01  0.000000E+00
  5.776220E-01  2.994229E-02  5.000000E-01  5.834553E-01  3.018406E-02  0.000000E+00  7.436752E-03 -3.210175E-05 -1.660653E-18  3.008015E-01  0.000000E+00
  5.983370E-01  2.978107E-02  5.000000E-01  6.043795E-01  3.002121E-02  0.000000E+00  7.473798E-03 -8.312847E-05 -1.134827E-18  2.990006E-01  0.000000E+00
  6.187480E-01  2.948623E-02  5.000000E-01  6.249967E-01  2.972339E-02  0.000000E+00  7.516414E-03 -1.325472E-04 -1.012537E-18  2.966338E-01  0.000000E+00
  6.388030E-01  2.906900E-02  5.000000E-01  6.452542E-01  2.930195E-02  0.000000E+00  7.562788E-03 -1.803881E-04 -1.600325E-18  2.938665E-01  0.000000E+00
  6.584530E-01  2.854085E-02  5.000000E-01  6.651026E-01  2.876847E-02  0.000000E+00  7.611200E-03 -2.266260E-04 -3.095330E-18  2.908099E-01  0.000000E+00
  6.776550E-01  2.791370E-02  5.000000E-01  6.844985E-01  2.813499E-02  0.000000E+00  7.658864E-03 -2.708644E-04 -3.973242E-18  2.874477E-01  0.000000E+00
  6.963720E-01  2.720137E-02  5.000000E-01  7.034046E-01  2.741546E-02  0.000000E+00  7.702176E-03 -3.130474E-04 -3.171733E-18  2.839146E-01  0.000000E+00
  7.145680E-01  2.641507E-02  5.000000E-01  7.217843E-01  2.662122E-02  0.000000E+00  7.737878E-03 -3.534543E-04 -2.248041E-18  2.803918E-01  0.000000E+00
  7.322140E-01  2.556563E-02  5.000000E-01  7.396085E-01  2.576320E-02  0.000000E+00  7.763611E-03 -3.919088E-04 -1.642167E-18  2.769170E-01  0.000000E+00
  7.492860E-01  2.466407E-02  5.000000E-01  7.568529E-01  2.485254E-02  0.000000E+00  7.779861E-03 -4.279941E-04 -1.428853E-18  2.736124E-01  0.000000E+00
  7.657630E-01  2.372125E-02  5.000000E-01  7.734963E-01  2.390020E-02  0.000000E+00  7.791233E-03 -4.619246E-04 -4.315080E-19  2.703634E-01  0.000000E+00
  7.816300E-01  2.274727E-02  5.000000E-01  7.895236E-01  2.291638E-02  0.000000E+00  7.808625E-03 -4.985380E-04  1.069589E-18  2.672370E-01  0.000000E+00
  7.968740E-01  2.173777E-02  5.000000E-01  8.049215E-01  2.189668E-02  0.000000E+00  7.855943E-03 -5.489740E-04  5.610471E-19  2.652274E-01  0.000000E+00
  8.114890E-01  2.066413E-02  5.000000E-01  8.196841E-01  2.081220E-02  0.000000E+00  7.957302E-03 -6.169762E-04 -1.982477E-19  2.631260E-01  0.000000E+00
  8.254710E-01  1.952274E-02  5.000000E-01  8.338073E-01  1.965929E-02  0.000000E+00  8.112267E-03 -6.941314E-04 -4.664896E-19  2.583251E-01  0.000000E+00
  8.388180E-01  1.832873E-02  5.000000E-01  8.472891E-01  1.845322E-02  0.000000E+00  8.300745E-03 -7.714216E-04  1.677317E-19  2.507281E-01  0.000000E+00
  8.515320E-01  1.710415E-02  5.000000E-01  8.601315E-01  1.721627E-02  0.000000E+00  8.503408E-03 -8.436444E-04  1.633113E-18  2.415149E-01  0.000000E+00
  8.636180E-01  1.587109E-02  5.000000E-01  8.723396E-01  1.597076E-02  0.000000E+00  8.708657E-03 -9.086761E-04  7.378489E-19  2.315444E-01  0.000000E+00
  8.750810E-01  1.464909E-02  5.000000E-01  8.839183E-01  1.473642E-02  0.000000E+00  8.909668E-03 -9.659793E-04 -1.223972E-19  2.211990E-01  0.000000E+00
  8.859290E-01  1.345370E-02  5.000000E-01  8.948759E-01  1.352896E-02  0.000000E+00  9.102187E-03 -1.015822E-03 -4.071417E-19  2.107586E-01  0.000000E+00
  8.961710E-01  1.229657E-02  5.000000E-01  9.052213E-01  1.236014E-02  0.000000E+00  9.284228E-03 -1.058874E-03 -1.177079E-18  2.004419E-01  0.000000E+00
  9.058170E-01  1.118631E-02  5.000000E-01  9.149647E-01  1.123867E-02  0.000000E+00  9.455491E-03 -1.095945E-03 -7.879450E-19  1.903769E-01  0.000000E+00
  9.148770E-01  1.012903E-02  5.000000E-01  9.241162E-01  1.017071E-02  0.000000E+00  9.616402E-03 -1.127763E-03  5.210138E-20  1.806179E-01  0.000000E+00
  9.148770E-01  1.012903E-02  5.000000E-01  9.241162E-01  1.017071E-02  0.000000E+00  9.616402E-03 -1.127763E-03  5.210138E-20  1.806179E-01  0.000000E+00
  9.233640E-01  9.128899E-03  5.000000E-01  9.326889E-01  9.160481E-03  0.000000E+00  9.767815E-03 -1.155134E-03  8.681908E-19  1.712218E-01  0.000000E+00
  9.312880E-01  8.188579E-03  5.000000E-01  9.406930E-01  8.210665E-03  0.000000E+00  9.911124E-03 -1.178878E-03  4.096970E-19  1.622347E-01  0.000000E+00
  9.386620E-01  7.309468E-03  5.000000E-01  9.481414E-01  7.322676E-03  0.000000E+00  1.004783E-02 -1.199721E-03 -1.081866E-18  1.536506E-01  0.000000E+00
  9.454960E-01  6.492236E-03  5.000000E-01  9.550444E-01  6.497190E-03  0.000000E+00  1.017899E-02 -1.218178E-03 -1.843439E-18  1.454384E-01  0.000000E+00
  9.518040E-01  5.736752E-03  5.000000E-01  9.614161E-01  5.734077E-03  0.000000E+00  1.030582E-02 -1.234792E-03 -6.380306E-20  1.376082E-01  0.000000E+00
  9.575950E-01  5.042626E-03  5.000000E-01  9.672656E-01  5.032941E-03  0.000000E+00  1.043046E-02 -1.250191E-03  3.682889E-18  1.301489E-01  0.000000E+00
  9.628810E-01  4.409060E-03  5.000000E-01  9.726050E-01  4.392977E-03  0.000000E+00  1.055679E-02 -1.265078E-03 -3.570617E-18  1.230307E-01  0.000000E+00
  9.676710E-01  3.835147E-03  5.000000E-01  9.774434E-01  3.813268E-03  0.000000E+00  1.069153E-02 -1.280492E-03 -3.304599E-17  1.162453E-01  0.000000E+00
  9.719750E-01  3.319862E-03  5.000000E-01  9.817908E-01  3.292779E-03  0.000000E+00  1.084346E-02 -1.297575E-03 -4.552365E-17  1.097853E-01  0.000000E+00
  9.758020E-01  2.862131E-03  5.000000E-01  9.856565E-01  2.830426E-03  0.000000E+00  1.101628E-02 -1.316888E-03  7.774398E-17  1.036598E-01  0.000000E+00
  9.791590E-01  2.460969E-03  5.000000E-01  9.890474E-01  2.425213E-03  0.000000E+00  1.118851E-02 -1.336170E-03  3.586227E-16  9.773333E-02  0.000000E+00
  9.820540E-01  2.115390E-03  5.000000E-01  9.919716E-01  2.076143E-03  0.000000E+00  1.129426E-02 -1.348611E-03  3.713592E-16  9.234380E-02  0.000000E+00
  9.844930E-01  1.824540E-03  5.000000E-01  9.944353E-01  1.782356E-03  0.000000E+00  1.121115E-02 -1.336584E-03 -4.436741E-16  8.837283E-02  0.000000E+00
  9.864820E-01  1.587632E-03  5.000000E-01  9.964443E-01  1.543056E-03  0.000000E+00  1.063290E-02 -1.254989E-03 -1.355458E-15  8.220917E-02  0.000000E+00
  9.880240E-01  1.404066E-03  5.000000E-01  9.980019E-01  1.357636E-03  0.000000E+00  9.079787E-03 -1.088924E-03 -2.603797E-16  6.792548E-02  0.000000E+00
  9.891220E-01  1.273309E-03  5.000000E-01  9.991110E-01  1.225558E-03  0.000000E+00  8.343908E-03 -1.106661E-03  2.449421E-15  8.458947E-02  0.000000E+00
  9.897810E-01  1.194992E-03  5.000000E-01  9.997767E-01  1.146451E-03  0.000000E+00  1.563786E-02 -6.649343E-04  6.550283E-16  1.780956E-01  0.000000E+00
  9.900000E-01  1.168923E-03  5.000000E-01  9.999979E-01  1.120118E-03  0.000000E+00  1.309010E-02 -1.661305E-03 -9.381633E-15 -6.190479E-02  0.000000E+00
  9.900000E-01  1.355144E-03  5.000000E-01  9.999979E-01  1.308220E-03  0.000000E+00  1.212004E-03 -1.360391E-02 -1.612795E-14 -2.045366E-01  0.000000E+00
  9.900000E-01  1.541355E-03  5.000000E-01  9.999979E-01  1.496311E-03  0.000000E+00 -7.382579E-04 -1.429384E-02 -1.430688E-14 -2.463075E-02  0.000000E+00
  9.900000E-01  1.727576E-03  5.000000E-01  9.999979E-01  1.684412E-03  0.000000E+00 -4.675736E-04  3.462629E-03 -8.818551E-15 -3.389856E-02  0.000000E+00
  9.900000E-01  1.913796E-03  5.000000E-01  9.999979E-01  1.872514E-03  0.000000E+00  8.128661E-04  3.548694E-03 -5.653921E-16 -1.578105E-01  0.000000E+00
  9.900000E-01  2.100017E-03  5.000000E-01  9.999979E-01  2.060615E-03  0.000000E+00  8.234232E-03 -4.608075E-03  4.753764E-15 -5.971536E-02  0.000000E+00
  9.900000E-01  2.100017E-03  5.000000E-01  9.999979E-01  2.060615E-03  0.000000E+00  8.234232E-03 -4.608075E-03  4.753764E-15 -5.971536E-02  0.000000E+00
  9.897920E-01  2.143405E-03  5.000000E-01  9.997878E-01  2.104441E-03  0.000000E+00  9.101085E-03 -2.732246E-03  4.418536E-15  8.422262E-02  0.000000E+00
  9.891660E-01  2.273477E-03  5.000000E-01  9.991555E-01  2.235827E-03  0.000000E+00  3.397515E-03 -6.166241E-04  2.106211E-15  1.255561E-02  0.000000E+00
  9.881230E-01  2.489977E-03  5.000000E-01  9.981019E-01  2.454513E-03  0.000000E+00  3.262935E-03 -6.721256E-04  3.438596E-16  4.098257E-05  0.000000E+00
  9.866580E-01  2.792497E-03  5.000000E-01  9.966221E-01  2.760088E-03  0.000000E+00  3.867031E-03 -8.049161E-04 -3.955503E-16  6.438296E-03  0.000000E+00
  9.847700E-01  3.180428E-03  5.000000E-01  9.947151E-01  3.151937E-03  0.000000E+00  4.040738E-03 -8.272576E-04 -3.197558E-16  4.534565E-03  0.000000E+00
  9.824550E-01  3.653014E-03  5.000000E-01  9.923767E-01  3.629295E-03  0.000000E+00  4.103991E-03 -8.334232E-04 -4.770524E-17 -8.866197E-04  0.000000E+00
  9.797070E-01  4.209306E-03  5.000000E-01  9.896009E-01  4.191205E-03  0.000000E+00  4.197051E-03 -8.457305E-04  6.184229E-17 -6.900875E-03  0.000000E+00
  9.765220E-01  4.848189E-03  5.000000E-01  9.863838E-01  4.836541E-03  0.000000E+00  4.331439E-03 -8.641644E-04  4.212900E-17 -1.385826E-02  0.000000E+00
  9.728930E-01  5.568385E-03  5.000000E-01  9.827181E-01  5.564010E-03  0.000000E+00  4.505828E-03 -8.887146E-04  8.035435E-18 -2.183810E-02  0.000000E+00
  9.688130E-01  6.368421E-03  5.000000E-01  9.785969E-01  6.372125E-03  0.000000E+00  4.713998E-03 -9.180331E-04 -4.655531E-18 -3.064904E-02  0.000000E+00
  9.642740E-01  7.246690E-03  5.000000E-01  9.740121E-01  7.259264E-03  0.000000E+00  4.945963E-03 -9.498684E-04 -5.276470E-18 -4.010636E-02  0.000000E+00
  9.592670E-01  8.201437E-03  5.000000E-01  9.689545E-01  8.223652E-03  0.000000E+00  5.192779E-03 -9.823666E-04 -3.012076E-18 -5.013236E-02  0.000000E+00
  9.537850E-01  9.230761E-03  5.000000E-01  9.634171E-01  9.263371E-03  0.000000E+00  5.448064E-03 -1.014100E-03 -3.114272E-19 -6.056768E-02  0.000000E+00
  9.478160E-01  1.033265E-02  5.000000E-01  9.573879E-01  1.037639E-02  0.000000E+00  5.706812E-03 -1.044071E-03  3.658392E-19 -7.130318E-02  0.000000E+00
  9.413520E-01  1.150510E-02  5.000000E-01  9.508586E-01  1.156068E-02  0.000000E+00  5.965251E-03 -1.071649E-03 -1.160931E-18 -8.223483E-02  0.000000E+00
  9.343800E-01  1.274611E-02  5.000000E-01  9.438162E-01  1.281422E-02  0.000000E+00  6.220028E-03 -1.096365E-03 -1.608156E-18 -9.323458E-02  0.000000E+00
  9.268920E-01  1.405351E-02  5.000000E-01  9.362526E-01  1.413483E-02  0.000000E+00  6.468097E-03 -1.117928E-03 -1.203684E-18 -1.042366E-01  0.000000E+00
  9.188750E-01  1.542560E-02  5.000000E-01  9.281546E-01  1.552077E-02  0.000000E+00  6.706787E-03 -1.136173E-03 -1.393977E-18 -1.151322E-01  0.000000E+00
  9.103190E-01  1.686068E-02  5.000000E-01  9.195122E-01  1.697034E-02  0.000000E+00  6.933489E-03 -1.151125E-03 -1.335884E-18 -1.258628E-01  0.000000E+00
  9.012130E-01  1.835749E-02  5.000000E-01  9.103142E-01  1.848228E-02  0.000000E+00  7.145977E-03 -1.162867E-03 -5.823102E-19 -1.363674E-01  0.000000E+00
  8.915460E-01  1.991515E-02  5.000000E-01  9.005496E-01  2.005566E-02  0.000000E+00  7.342461E-03 -1.171731E-03 -3.444658E-19 -1.466356E-01  0.000000E+00
  8.813080E-01  2.153351E-02  5.000000E-01  8.902082E-01  2.169037E-02  0.000000E+00  7.521893E-03 -1.178242E-03  1.082526E-18 -1.566767E-01  0.000000E+00
  8.704900E-01  2.321295E-02  5.000000E-01  8.792810E-01  2.338676E-02  0.000000E+00  7.683941E-03 -1.183034E-03  2.813982E-18 -1.665194E-01  0.000000E+00
  8.704900E-01  2.321295E-02  5.000000E-01  8.792810E-01  2.338676E-02  0.000000E+00  7.683941E-03 -1.183034E-03  2.813982E-18 -1.665194E-01  0.000000E+00
  8.590830E-01  2.495486E-02  5.000000E-01  8.677588E-01  2.514627E-02  0.000000E+00  7.829358E-03 -1.187099E-03  2.040882E-18 -1.762867E-01  0.000000E+00
  8.470810E-01  2.676183E-02  5.000000E-01  8.556356E-01  2.697149E-02  0.000000E+00  7.960734E-03 -1.191547E-03  1.288960E-18 -1.861711E-01  0.000000E+00
  8.344780E-01  2.863739E-02  5.000000E-01  8.429053E-01  2.886598E-02  0.000000E+00  8.082632E-03 -1.197425E-03  1.501855E-18 -1.964020E-01  0.000000E+00
  8.212700E-01  3.058542E-02  5.000000E-01  8.295639E-01  3.083369E-02  0.000000E+00  8.201983E-03 -1.205684E-03  7.200452E-19 -2.073782E-01  0.000000E+00
  8.074550E-01  3.260932E-02  5.000000E-01  8.156094E-01  3.287803E-02  0.000000E+00  8.328921E-03 -1.216893E-03 -1.782947E-19 -2.196166E-01  0.000000E+00
  7.930350E-01  3.471018E-02  5.000000E-01  8.010438E-01  3.500011E-02  0.000000E+00  8.474624E-03 -1.230404E-03  4.265806E-19 -2.332742E-01  0.000000E+00
  7.780130E-01  3.688380E-02  5.000000E-01  7.858700E-01  3.719568E-02  0.000000E+00  8.645355E-03 -1.244237E-03 -4.577964E-19 -2.479321E-01  0.000000E+00
  7.623950E-01  3.911976E-02  5.000000E-01  7.700943E-01  3.945421E-02  0.000000E+00  8.840099E-03 -1.257170E-03 -2.072976E-18 -2.634064E-01  0.000000E+00
  7.461930E-01  4.140863E-02  5.000000E-01  7.537287E-01  4.176620E-02  0.000000E+00  9.055293E-03 -1.268906E-03  3.462489E-20 -2.797769E-01  0.000000E+00
  7.294180E-01  4.374051E-02  5.000000E-01  7.367843E-01  4.412163E-02  0.000000E+00  9.287623E-03 -1.278833E-03  1.808897E-18 -2.969235E-01  0.000000E+00
  7.120900E-01  4.610414E-02  5.000000E-01  7.192813E-01  4.650913E-02  0.000000E+00  9.533546E-03 -1.285978E-03  8.028876E-19 -3.147020E-01  0.000000E+00
  6.942280E-01  4.848712E-02  5.000000E-01  7.012389E-01  4.891617E-02  0.000000E+00  9.789571E-03 -1.289543E-03 -7.097105E-19 -3.329896E-01  0.000000E+00
  6.758590E-01  5.087661E-02  5.000000E-01  6.826844E-01  5.132980E-02  0.000000E+00  1.005256E-02 -1.289166E-03 -1.368294E-18 -3.516821E-01  0.000000E+00
  6.570120E-01  5.325980E-02  5.000000E-01  6.636471E-01  5.373705E-02  0.000000E+00  1.031997E-02 -1.284728E-03 -1.662363E-18 -3.707158E-01  0.000000E+00
  6.377220E-01  5.562433E-02  5.000000E-01  6.441623E-01  5.612546E-02  0.000000E+00  1.059035E-02 -1.276450E-03 -4.142558E-18 -3.901408E-01  0.000000E+00
  6.180260E-01  5.795891E-02  5.000000E-01  6.242674E-01  5.848362E-02  0.000000E+00  1.086399E-02 -1.264554E-03 -6.958950E-18 -4.100742E-01  0.000000E+00
  5.979670E-01  6.025196E-02  5.000000E-01  6.040058E-01  6.079982E-02  0.000000E+00  1.114306E-02 -1.249039E-03 -6.054805E-18 -4.307257E-01  0.000000E+00
  5.775910E-01  6.249151E-02  5.000000E-01  5.834240E-01  6.306200E-02  0.000000E+00  1.143138E-02 -1.229604E-03 -3.564179E-18 -4.522915E-01  0.000000E+00
  5.569470E-01  6.466470E-02  5.000000E-01  5.625715E-01  6.525713E-02  0.000000E+00  1.173269E-02 -1.205160E-03 -1.463715E-18 -4.746813E-01  0.000000E+00
  5.360860E-01  6.675563E-02  5.000000E-01  5.414999E-01  6.736917E-02  0.000000E+00  1.204828E-02 -1.174547E-03  1.917220E-18 -4.977647E-01  0.000000E+00
  5.150640E-01  6.874870E-02  5.000000E-01  5.202656E-01  6.938237E-02  0.000000E+00  1.237754E-02 -1.137197E-03  3.396414E-18 -5.215790E-01  0.000000E+00
  4.939370E-01  7.062933E-02  5.000000E-01  4.989252E-01  7.128199E-02  0.000000E+00  1.271961E-02 -1.092537E-03  5.373879E-19 -5.461322E-01  0.000000E+00
  4.727610E-01  7.238376E-02  5.000000E-01  4.775354E-01  7.305414E-02  0.000000E+00  1.307376E-02 -1.039899E-03  3.932194E-19 -5.714122E-01  0.000000E+00
  5.770140E-06 -5.191704E-05  5.000000E-01  5.829536E-06 -1.130510E-04  0.000000E+00  3.751024E-03 -2.178692E-02 -5.101696E-13  9.104709E-01  0.000000E+00
  9.104010E-05 -3.816955E-04  5.000000E-01  9.196063E-05 -4.461599E-04  0.000000E+00  1.999361E-02 -3.478775E-02 -4.693361E-13  9.169655E-01  0.000000E+00
  4.796980E-04 -8.882625E-04  5.000000E-01  4.845435E-04 -9.578426E-04  0.000000E+00  3.856147E-02 -3.412162E-02 -3.288861E-13  6.048033E-01  0.000000E+00
  1.456590E-03 -1.466632E-03  5.000000E-01  1.471301E-03 -1.542053E-03  0.000000E+00  4.178641E-02 -1.998511E-02 -1.548658E-13  2.726812E-01  0.000000E+00
  3.096410E-03 -2.016050E-03  5.000000E-01  3.127681E-03 -2.097019E-03  0.000000E+00  3.422912E-02 -9.819608E-03 -3.441138E-14  1.588166E-01  0.000000E+00
  5.335170E-03 -2.515223E-03  5.000000E-01  5.389050E-03 -2.601233E-03  0.000000E+00  2.736153E-02 -5.288340E-03  9.296213E-15  1.420361E-01  0.000000E+00
  8.129670E-03 -2.958476E-03  5.000000E-01  8.211772E-03 -3.048963E-03  0.000000E+00  2.316310E-02 -3.159647E-03  9.319025E-15  1.205345E-01  0.000000E+00
  1.145600E-02 -3.328050E-03  5.000000E-01  1.157169E-02 -3.422269E-03  0.000000E+00  1.998451E-02 -1.743644E-03  1.418865E-15  8.462934E-02  0.000000E+00
  1.529970E-02 -3.557448E-03  5.000000E-01  1.545421E-02 -3.653984E-03  0.000000E+00  1.658673E-02 -5.473639E-04 -1.457124E-15  4.633316E-02  0.000000E+00
  1.962420E-02 -3.554889E-03  5.000000E-01  1.982238E-02 -3.651399E-03  0.000000E+00  1.304739E-02  2.386792E-04 -6.543617E-16  3.835994E-02  0.000000E+00
  2.439810E-02 -3.343257E-03  5.000000E-01  2.464449E-02 -3.437630E-03  0.000000E+00  1.066176E-02  4.662072E-04  7.336182E-16  9.147489E-02  0.000000E+00
  2.966100E-02 -3.113718E-03  5.000000E-01  2.996054E-02 -3.205772E-03  0.000000E+00  1.023432E-02  3.994024E-04  1.465417E-15  1.569046E-01  0.000000E+00
  3.543640E-02 -2.929775E-03  5.000000E-01  3.579427E-02 -3.019972E-03  0.000000E+00  1.097496E-02  3.133385E-04  1.458949E-15  1.751048E-01  0.000000E+00
  4.172970E-02 -2.772394E-03  5.000000E-01  4.215112E-02 -2.861002E-03  0.000000E+00  1.173580E-02  2.900274E-04  1.017385E-15  1.612484E-01  0.000000E+00
  4.854440E-02 -2.603072E-03  5.000000E-01  4.903464E-02 -2.689970E-03  0.000000E+00  1.205768E-02  3.415430E-04  4.925053E-16  1.425032E-01  0.000000E+00
  5.588220E-02 -2.368054E-03  5.000000E-01  5.644655E-02 -2.452578E-03  0.000000E+00  1.200588E-02  4.325152E-04  1.106079E-16  1.305469E-01  0.000000E+00
  6.375220E-02 -2.050729E-03  5.000000E-01  6.439603E-02 -2.132049E-03  0.000000E+00  1.181491E-02  5.092995E-04 -7.345694E-17  1.284899E-01  0.000000E+00
  7.217040E-02 -1.663400E-03  5.000000E-01  7.289924E-02 -1.740808E-03  0.000000E+00  1.167117E-02  5.525606E-04 -1.144158E-16  1.317893E-01  0.000000E+00
  8.115500E-02 -1.226768E-03  5.000000E-01  8.197457E-02 -1.299767E-03  0.000000E+00  1.162426E-02  5.768596E-04 -8.911123E-17  1.339339E-01  0.000000E+00
  9.072040E-02 -7.436157E-04  5.000000E-01  9.163657E-02 -8.117350E-04  0.000000E+00  1.162405E-02  6.032948E-04 -5.145355E-17  1.318517E-01  0.000000E+00
  1.008780E-01 -2.024381E-04  5.000000E-01  1.018968E-01 -2.650922E-04  0.000000E+00  1.161096E-02  6.393500E-04 -2.312411E-17  1.276199E-01  0.000000E+00
  1.116380E-01  4.098273E-04  5.000000E-01  1.127654E-01  3.533564E-04  0.000000E+00  1.155516E-02  6.850049E-04 -7.797976E-18  1.236668E-01  0.000000E+00
  1.230100E-01  1.111291E-03  5.000000E-01  1.242523E-01  1.061904E-03  0.000000E+00  1.143818E-02  7.397997E-04 -3.284721E-18  1.207077E-01  0.000000E+00
  1.350030E-01  1.923290E-03  5.000000E-01  1.363664E-01  1.882104E-03  0.000000E+00  1.123926E-02  8.016007E-04 -2.169533E-18  1.193305E-01  0.000000E+00
  1.350030E-01  1.923290E-03  5.000000E-01  1.363664E-01  1.882104E-03  0.000000E+00  1.123926E-02  8.016007E-04 -2.169533E-18  1.193305E-01  0.000000E+00
  1.476220E-01  2.869892E-03  5.000000E-01  1.491128E-01  2.838265E-03  0.000000E+00  1.094136E-02  8.663913E-04  1.039268E-18  1.204863E-01  0.000000E+00
  1.608730E-01  3.976376E-03  5.000000E-01  1.624976E-01  3.955923E-03  0.000000E+00  1.054247E-02  9.285184E-04  5.346135E-18  1.253159E-01  0.000000E+00
  1.747560E-01  5.265573E-03  5.000000E-01  1.765208E-01  5.258139E-03  0.000000E+00  1.006293E-02  9.802422E-04  6.508109E-18  1.346666E-01  0.000000E+00
  1.892730E-01  6.748952E-03  5.000000E-01  1.911844E-01  6.756499E-03  0.000000E+00  9.546132E-03  1.010016E-03  5.090485E-18  1.488429E-01  0.000000E+00
  2.044180E-01  8.410838E-03  5.000000E-01  2.064824E-01  8.435169E-03  0.000000E+00  9.059991E-03  1.004301E-03  3.155924E-18  1.687815E-01  0.000000E+00
  2.201880E-01  1.017919E-02  5.000000E-01  2.224116E-01  1.022137E-02  0.000000E+00  8.665431E-03  9.652652E-04  4.277140E-19  1.919169E-01  0.000000E+00
  2.365750E-01  1.198966E-02  5.000000E-01  2.389641E-01  1.205013E-02  0.000000E+00  8.369998E-03  9.111545E-04 -4.400277E-19  2.122111E-01  0.000000E+00
  2.535710E-01  1.380940E-02  5.000000E-01  2.561318E-01  1.388825E-02  0.000000E+00  8.144299E-03  8.534751E-04 -9.297230E-19  2.280617E-01  0.000000E+00
  2.711570E-01  1.561164E-02  5.000000E-01  2.738954E-01  1.570869E-02  0.000000E+00  7.965984E-03  7.940297E-04 -1.511559E-18  2.414064E-01  0.000000E+00
  2.893100E-01  1.736998E-02  5.000000E-01  2.922317E-01  1.748479E-02  0.000000E+00  7.829154E-03  7.325232E-04  3.191155E-20  2.534244E-01  0.000000E+00
  3.080020E-01  1.905627E-02  5.000000E-01  3.111125E-01  1.918811E-02  0.000000E+00  7.730021E-03  6.701208E-04  1.848851E-18  2.637814E-01  0.000000E+00
  3.271950E-01  2.065125E-02  5.000000E-01  3.304993E-01  2.079919E-02  0.000000E+00  7.659387E-03  6.085298E-04  1.849979E-18  2.720723E-01  0.000000E+00
  3.468470E-01  2.214016E-02  5.000000E-01  3.503498E-01  2.230314E-02  0.000000E+00  7.606731E-03  5.487346E-04  1.535481E-18  2.786193E-01  0.000000E+00
  3.669110E-01  2.351427E-02  5.000000E-01  3.706164E-01  2.369113E-02  0.000000E+00  7.563504E-03  4.916765E-04  2.275962E-18  2.837588E-01  0.000000E+00
  3.873360E-01  2.477043E-02  5.000000E-01  3.912477E-01  2.495997E-02  0.000000E+00  7.524029E-03  4.373926E-04  2.426009E-18  2.878524E-01  0.000000E+00
  4.080670E-01  2.590556E-02  5.000000E-01  4.121880E-01  2.610656E-02  0.000000E+00  7.486768E-03  3.846172E-04  1.614118E-18  2.913915E-01  0.000000E+00
  4.290470E-01  2.691225E-02  5.000000E-01  4.333799E-01  2.712342E-02  0.000000E+00  7.453216E-03  3.322834E-04  2.395589E-18  2.945588E-01  0.000000E+00
  4.502140E-01  2.778355E-02  5.000000E-01  4.547607E-01  2.800352E-02  0.000000E+00  7.424949E-03  2.802808E-04  2.026737E-18  2.971941E-01  0.000000E+00
  4.715070E-01  2.851425E-02  5.000000E-01  4.762687E-01  2.874160E-02  0.000000E+00  7.402855E-03  2.287094E-04  5.079814E-20  2.992145E-01  0.000000E+00
  4.928620E-01  2.910069E-02  5.000000E-01  4.978393E-01  2.933397E-02  0.000000E+00  7.388146E-03  1.773548E-04 -2.206897E-20  3.006717E-01  0.000000E+00
  5.142140E-01  2.953940E-02  5.000000E-01  5.194070E-01  2.977710E-02  0.000000E+00  7.382914E-03  1.256132E-04  7.322336E-20  3.016463E-01  0.000000E+00
  5.355000E-01  2.982642E-02  5.000000E-01  5.409079E-01  3.006702E-02  0.000000E+00  7.389239E-03  7.311787E-05 -1.795159E-18  3.020927E-01  0.000000E+00
  5.566560E-01  2.995990E-02  5.000000E-01  5.622776E-01  3.020185E-02  0.000000E+00  7.407689E-03  2.024218E-05 -2.575960E-18  3.018517E-01  0.000000E+00
  4.727610E-01  7.238376E-02  5.000000E-01  4.775354E-01  7.305414E-02  0.000000E+00  1.307376E-02 -1.039899E-03  3.932194E-19 -5.714122E-01  0.000000E+00
  4.515970E-01  7.399896E-02  5.000000E-01  4.561576E-01  7.468565E-02  0.000000E+00  1.343942E-02 -9.785619E-04  3.590080E-18 -5.973605E-01  0.000000E+00
  4.305020E-01  7.546307E-02  5.000000E-01  4.348496E-01  7.616455E-02  0.000000E+00  1.381633E-02 -9.079421E-04  4.139128E-18 -6.240378E-01  0.000000E+00
  4.095340E-01  7.676561E-02  5.000000E-01  4.136698E-01  7.748024E-02  0.000000E+00  1.420632E-02 -8.279674E-04  4.259333E-18 -6.519735E-01  0.000000E+00
  3.887520E-01  7.789889E-02  5.000000E-01  3.926780E-01  7.862497E-02  0.000000E+00  1.461604E-02 -7.374407E-04  5.446481E-18 -6.817719E-01  0.000000E+00
  3.682080E-01  7.885370E-02  5.000000E-01  3.719265E-01  7.958942E-02  0.000000E+00  1.505481E-02 -6.326271E-04  7.193996E-18 -7.134935E-01  0.000000E+00
  3.479570E-01  7.961704E-02  5.000000E-01  3.514710E-01  8.036047E-02  0.000000E+00  1.552870E-02 -5.087003E-04  9.288429E-18 -7.467238E-01  0.000000E+00
  3.280470E-01  8.017400E-02  5.000000E-01  3.313599E-01  8.092306E-02  0.000000E+00  1.603781E-02 -3.625099E-04  1.034413E-17 -7.811543E-01  0.000000E+00
  3.085240E-01  8.051369E-02  5.000000E-01  3.116397E-01  8.126618E-02  0.000000E+00  1.657953E-02 -1.926187E-04  1.091357E-17 -8.167333E-01  0.000000E+00
  2.894320E-01  8.062904E-02  5.000000E-01  2.923549E-01  8.138269E-02  0.000000E+00  1.715261E-02  3.799986E-06  1.272777E-17 -8.535291E-01  0.000000E+00
  2.708110E-01  8.051268E-02  5.000000E-01  2.735459E-01  8.126516E-02  0.000000E+00  1.776250E-02  2.313179E-04  1.676693E-17 -8.930315E-01  0.000000E+00
  2.526960E-01  8.015722E-02  5.000000E-01  2.552479E-01  8.090610E-02  0.000000E+00  1.843740E-02  4.971789E-04  2.064666E-17 -9.389244E-01  0.000000E+00
  2.351200E-01  7.955708E-02  5.000000E-01  2.374944E-01  8.029990E-02  0.000000E+00  1.923436E-02  8.270844E-04  2.253074E-17 -9.918149E-01  0.000000E+00
  2.181120E-01  7.868175E-02  5.000000E-01  2.203147E-01  7.941573E-02  0.000000E+00  2.019155E-02  1.266969E-03  2.261493E-17 -1.045584E+00  0.000000E+00
  2.017010E-01  7.747666E-02  5.000000E-01  2.037380E-01  7.819847E-02  0.000000E+00  2.127531E-02  1.844395E-03  2.328401E-17 -1.094513E+00  0.000000E+00
  1.859190E-01  7.590958E-02  5.000000E-01  1.877966E-01  7.661557E-02  0.000000E+00  2.240765E-02  2.560039E-03  2.457741E-17 -1.135744E+00  0.000000E+00
  1.707920E-01  7.396609E-02  5.000000E-01  1.725168E-01  7.465245E-02  0.000000E+00  2.350931E-02  3.411580E-03  2.168058E-17 -1.164982E+00  0.000000E+00
  1.563470E-01  7.164060E-02  5.000000E-01  1.579259E-01  7.230347E-02  0.000000E+00  2.449823E-02  4.389971E-03  1.620835E-17 -1.176891E+00  0.000000E+00
  1.426070E-01  6.893818E-02  5.000000E-01  1.440472E-01  6.957377E-02  0.000000E+00  2.528763E-02  5.463441E-03  1.256276E-17 -1.167567E+00  0.000000E+00
  1.295900E-01  6.588095E-02  5.000000E-01  1.308987E-01  6.648567E-02  0.000000E+00  2.580388E-02  6.576144E-03  1.137455E-17 -1.136013E+00  0.000000E+00
  1.173060E-01  6.250893E-02  5.000000E-01  1.184907E-01  6.307959E-02  0.000000E+00  2.600839E-02  7.666916E-03  1.447098E-17 -1.083281E+00  0.000000E+00
  1.057600E-01  5.887233E-02  5.000000E-01  1.068281E-01  5.940626E-02  0.000000E+00  2.590169E-02  8.684298E-03  2.128050E-17 -1.011592E+00  0.000000E+00
  9.495290E-02  5.502776E-02  5.000000E-01  9.591182E-02  5.552287E-02  0.000000E+00  2.551763E-02  9.588299E-03  2.959059E-17 -9.246037E-01  0.000000E+00
  8.487680E-02  5.103635E-02  5.000000E-01  8.573396E-02  5.149115E-02  0.000000E+00  2.491363E-02  1.035684E-02  4.389480E-17 -8.255801E-01  0.000000E+00
  8.487680E-02  5.103635E-02  5.000000E-01  8.573396E-02  5.149115E-02  0.000000E+00  2.491363E-02  1.035684E-02  4.389480E-17 -8.255801E-01  0.000000E+00
  7.552090E-02  4.695955E-02  5.000000E-01  7.628358E-02  4.737318E-02  0.000000E+00  2.414036E-02  1.097904E-02  6.341854E-17 -7.156820E-01  0.000000E+00
  6.687020E-02  4.285585E-02  5.000000E-01  6.754551E-02  4.322803E-02  0.000000E+00  2.322202E-02  1.142497E-02  7.789472E-17 -5.975726E-01  0.000000E+00
  5.889940E-02  3.878872E-02  5.000000E-01  5.949422E-02  3.911983E-02  0.000000E+00  2.219244E-02  1.165950E-02  7.987062E-17 -4.782838E-01  0.000000E+00
  5.157140E-02  3.482253E-02  5.000000E-01  5.209221E-02  3.511359E-02  0.000000E+00  2.114102E-02  1.170724E-02  7.291863E-17 -3.659803E-01  0.000000E+00
  4.484650E-02  3.100997E-02  5.000000E-01  4.529940E-02  3.126252E-02  0.000000E+00  2.020410E-02  1.168460E-02  6.770922E-17 -2.648845E-01  0.000000E+00
  3.869820E-02  2.738129E-02  5.000000E-01  3.908901E-02  2.759720E-02  0.000000E+00  1.951242E-02  1.175333E-02  6.325040E-17 -1.740095E-01  0.000000E+00
  3.311550E-02  2.394824E-02  5.000000E-01  3.344993E-02  2.412948E-02  0.000000E+00  1.912521E-02  1.202952E-02  6.115057E-17 -8.809717E-02  0.000000E+00
  2.809130E-02  2.071817E-02  5.000000E-01  2.837499E-02  2.086680E-02  0.000000E+00  1.889777E-02  1.247594E-02  6.842227E-17  8.199610E-03  0.000000E+00
  2.362330E-02  1.769504E-02  5.000000E-01  2.386187E-02  1.781313E-02  0.000000E+00  1.844010E-02  1.274012E-02  5.093461E-17  1.250041E-01  0.000000E+00
  1.966610E-02  1.490281E-02  5.000000E-01  1.986471E-02  1.499270E-02  0.000000E+00  1.753864E-02  1.234022E-02 -3.883256E-17  2.365544E-01  0.000000E+00
  1.609460E-02  1.239461E-02  5.000000E-01  1.625714E-02  1.245917E-02  0.000000E+00  1.651113E-02  1.137208E-02 -1.317159E-16  3.156430E-01  0.000000E+00
  1.282740E-02  1.018978E-02  5.000000E-01  1.295694E-02  1.023207E-02  0.000000E+00  1.593109E-02  1.053667E-02  2.047262E-16  3.648350E-01  0.000000E+00
  9.860990E-03  8.269037E-03  5.000000E-01  9.960576E-03  8.291935E-03  0.000000E+00  1.620273E-02  1.047264E-02  1.894621E-15  4.021544E-01  0.000000E+00
  7.251350E-03  6.586776E-03  5.000000E-01  7.324582E-03  6.592685E-03  0.000000E+00  1.740958E-02  1.143414E-02  5.308446E-15  4.421610E-01  0.000000E+00
  5.038810E-03  5.109842E-03  5.000000E-01  5.089697E-03  5.100835E-03  0.000000E+00  1.944816E-02  1.348924E-02  6.757782E-15  4.875084E-01  0.000000E+00
  3.239710E-03  3.821340E-03  5.000000E-01  3.272429E-03  3.799322E-03  0.000000E+00  2.197457E-02  1.678665E-02 -6.167683E-15  5.448736E-01  0.000000E+00
  1.861880E-03  2.712128E-03  5.000000E-01  1.880684E-03  2.678907E-03  0.000000E+00  2.372956E-02  2.113104E-02 -5.427876E-14  6.310124E-01  0.000000E+00
  9.013910E-04  1.781249E-03  5.000000E-01  9.104951E-04  1.738628E-03  0.000000E+00  2.171423E-02  2.431585E-02 -1.550847E-13  7.675332E-01  0.000000E+00
  3.295630E-04  1.037025E-03  5.000000E-01  3.328923E-04  9.868885E-04  0.000000E+00  1.312750E-02  1.967466E-02 -3.013852E-13  9.383625E-01  0.000000E+00
  7.194000E-05  4.946313E-04  5.000000E-01  7.266764E-05  4.390169E-04  0.000000E+00  2.335264E-03  4.413226E-04 -4.424373E-13  1.022976E+00  0.000000E+00
  4.516100E-06  1.683189E-04  5.000000E-01  4.562832E-06  1.094091E-04  0.000000E+00 -2.263964E-03 -2.160494E-02 -5.057628E-13  9.270206E-01  0.000000E+00
 -1.112850E-09  6.000371E-05  5.000000E-01  0.000000E+00  0.000000E+00  0.000000E+00 -1.308336E-03 -2.257186E-02 -5.060628E-13  8.271982E-01  0.000000E+00