 Title = "ADflow Slice Data"
Variables =  "CoordinateX"  "CoordinateY"  "CoordinateZ"  "XoC"  "YoC"  "ZoC" "VelocityX" "VelocityY" "VelocityZ" "CoefPressure" "Mach" 
Zone T= "Slice_0001 None Absolute Regular z = 0.50000000"
 Nodes =          192  Elements=          184  ZONETYPE=FELINESEG
 DATAPACKING=POINT
  5.566560E-01  5.166408E-02  5.000000E-01  5.622777E-01  5.199524E-02  0.000000E+00 -5.774202E-04 -5.879563E-05  8.126696E-19  5.032060E-01  0.000000E+00
  5.776220E-01  5.198579E-02  5.000000E-01  5.834554E-01  5.232019E-02  0.000000E+00  1.381032E-04 -2.860842E-05 -1.021239E-18  5.166069E-01  0.000000E+00
  5.983370E-01  5.018314E-02  5.000000E-01  6.043796E-01  5.049934E-02  0.000000E+00  1.242501E-03 -1.873251E-04 -2.740621E-18  5.183790E-01  0.000000E+00
  6.187480E-01  4.670075E-02  5.000000E-01  6.249967E-01  4.698178E-02  0.000000E+00  2.710832E-03 -5.760068E-04 -1.312098E-18  5.054369E-01  0.000000E+00
  6.388030E-01  4.198481E-02  5.000000E-01  6.452543E-01  4.221822E-02  0.000000E+00  4.502556E-03 -1.182886E-03  1.581767E-19  4.717856E-01  0.000000E+00
  6.584530E-01  3.647224E-02  5.000000E-01  6.651027E-01  3.664997E-02  0.000000E+00  6.544756E-03 -1.928466E-03  8.788625E-19  4.147082E-01  0.000000E+00
  6.776550E-01  3.061572E-02  5.000000E-01  6.844986E-01  3.073431E-02  0.000000E+00  8.702139E-03 -2.628985E-03 -2.907681E-19  3.313165E-01  0.000000E+00
  6.963720E-01  2.499588E-02  5.000000E-01  7.034047E-01  2.505771E-02  0.000000E+00  1.072848E-02 -3.037053E-03 -1.991417E-18  2.238240E-01  0.000000E+00
  7.145680E-01  2.010490E-02  5.000000E-01  7.217844E-01  2.011734E-02  0.000000E+00  1.228230E-02 -2.979361E-03  1.148989E-18  1.096732E-01  0.000000E+00
  7.322140E-01  1.624534E-02  5.000000E-01  7.396086E-01  1.621880E-02  0.000000E+00  1.303056E-02 -2.452979E-03  2.699171E-18  1.222001E-02  0.000000E+00
  7.492860E-01  1.354559E-02  5.000000E-01  7.568530E-01  1.349178E-02  0.000000E+00  1.278697E-02 -1.623517E-03  8.521470E-19 -4.986855E-02  0.000000E+00
  7.657630E-01  1.200182E-02  5.000000E-01  7.734964E-01  1.193243E-02  0.000000E+00  1.160612E-02 -7.439237E-04 -7.821231E-19 -6.952331E-02  0.000000E+00
  7.816300E-01  1.152459E-02  5.000000E-01  7.895237E-01  1.145038E-02  0.000000E+00  9.807249E-03 -6.554573E-05 -1.958632E-18 -4.730462E-02  0.000000E+00
  7.968740E-01  1.187160E-02  5.000000E-01  8.049216E-01  1.180090E-02  0.000000E+00  7.938174E-03  2.673454E-04 -1.845503E-18  1.610056E-02  0.000000E+00
  8.114890E-01  1.256821E-02  5.000000E-01  8.196842E-01  1.250453E-02  0.000000E+00  6.494349E-03  3.229249E-04 -9.257428E-19  9.653070E-02  0.000000E+00
  8.254710E-01  1.327929E-02  5.000000E-01  8.338074E-01  1.322279E-02  0.000000E+00  5.611642E-03  2.620318E-04 -4.261442E-19  1.597218E-01  0.000000E+00
  8.388180E-01  1.382953E-02  5.000000E-01  8.472892E-01  1.377860E-02  0.000000E+00  5.155724E-03  1.715284E-04 -3.308544E-19  1.991457E-01  0.000000E+00
  8.515320E-01  1.414716E-02  5.000000E-01  8.601316E-01  1.409943E-02  0.000000E+00  4.970064E-03  7.662169E-05  3.016946E-19  2.237463E-01  0.000000E+00
  8.636180E-01  1.421913E-02  5.000000E-01  8.723397E-01  1.417213E-02  0.000000E+00  4.965259E-03 -1.960995E-05  1.457756E-18  2.402192E-01  0.000000E+00
  8.750810E-01  1.406262E-02  5.000000E-01  8.839184E-01  1.401404E-02  0.000000E+00  5.090074E-03 -1.187175E-04  1.825133E-18  2.507312E-01  0.000000E+00
  8.859290E-01  1.370815E-02  5.000000E-01  8.948760E-01  1.365599E-02  0.000000E+00  5.303783E-03 -2.218323E-04  9.863196E-19  2.562518E-01  0.000000E+00
  8.961710E-01  1.319027E-02  5.000000E-01  9.052214E-01  1.313287E-02  0.000000E+00  5.573945E-03 -3.290197E-04  2.107432E-19  2.578050E-01  0.000000E+00
  9.058170E-01  1.254342E-02  5.000000E-01  9.149648E-01  1.247950E-02  0.000000E+00  5.879117E-03 -4.396245E-04  3.685208E-19  2.563198E-01  0.000000E+00
  9.148770E-01  1.179963E-02  5.000000E-01  9.241163E-01  1.172820E-02  0.000000E+00  6.206775E-03 -5.527717E-04 -2.794784E-20  2.524035E-01  0.000000E+00
  9.148770E-01  1.179963E-02  5.000000E-01  9.241163E-01  1.172820E-02  0.000000E+00  6.206775E-03 -5.527717E-04 -2.794784E-20  2.524035E-01  0.000000E+00
  9.233640E-01  1.098771E-02  5.000000E-01  9.326890E-01  1.090808E-02  0.000000E+00  6.549671E-03 -6.676418E-04 -9.712450E-19  2.464993E-01  0.000000E+00
  9.312880E-01  1.013280E-02  5.000000E-01  9.406931E-01  1.004453E-02  0.000000E+00  6.903718E-03 -7.835556E-04 -1.942523E-18  2.389729E-01  0.000000E+00
  9.386620E-01  9.256518E-03  5.000000E-01  9.481415E-01  9.159400E-03  0.000000E+00  7.266661E-03 -8.999774E-04 -1.919042E-18  2.301032E-01  0.000000E+00
  9.454960E-01  8.377435E-03  5.000000E-01  9.550446E-01  8.271440E-03  0.000000E+00  7.637173E-03 -1.016417E-03 -3.684251E-19  2.201125E-01  0.000000E+00
  9.518040E-01  7.511087E-03  5.000000E-01  9.614163E-01  7.396342E-03  0.000000E+00  8.015025E-03 -1.132629E-03  1.457597E-18  2.092160E-01  0.000000E+00
  9.575950E-01  6.670737E-03  5.000000E-01  9.672657E-01  6.547505E-03  0.000000E+00  8.401649E-03 -1.248656E-03  1.588870E-18  1.975796E-01  0.000000E+00
  9.628810E-01  5.867354E-03  5.000000E-01  9.726051E-01  5.736009E-03  0.000000E+00  8.800947E-03 -1.364933E-03  2.091528E-19  1.853378E-01  0.000000E+00
  9.676710E-01  5.110199E-03  5.000000E-01  9.774435E-01  4.971208E-03  0.000000E+00  9.220605E-03 -1.482601E-03 -1.146111E-18  1.726449E-01  0.000000E+00
  9.719750E-01  4.406901E-03  5.000000E-01  9.817910E-01  4.260807E-03  0.000000E+00  9.670936E-03 -1.603254E-03 -2.685741E-18  1.596399E-01  0.000000E+00
  9.758020E-01  3.763736E-03  5.000000E-01  9.856566E-01  3.611146E-03  0.000000E+00  1.015601E-02 -1.727626E-03 -4.715592E-18  1.464387E-01  0.000000E+00
  9.791590E-01  3.185978E-03  5.000000E-01  9.890475E-01  3.027553E-03  0.000000E+00  1.065250E-02 -1.851882E-03 -6.521503E-18  1.330799E-01  0.000000E+00
  9.820540E-01  2.677792E-03  5.000000E-01  9.919718E-01  2.514235E-03  0.000000E+00  1.108977E-02 -1.963926E-03 -1.798431E-19  1.201757E-01  0.000000E+00
  9.844930E-01  2.242622E-03  5.000000E-01  9.944354E-01  2.074670E-03  0.000000E+00  1.132790E-02 -2.033965E-03  2.204395E-17  1.086528E-01  0.000000E+00
  9.864820E-01  1.883111E-03  5.000000E-01  9.964445E-01  1.711529E-03  0.000000E+00  1.101962E-02 -1.990890E-03  4.144690E-17  9.479880E-02  0.000000E+00
  9.880240E-01  1.601485E-03  5.000000E-01  9.980020E-01  1.427059E-03  0.000000E+00  9.691062E-03 -1.789162E-03 -4.067519E-17  7.519419E-02  0.000000E+00
  9.891220E-01  1.399311E-03  5.000000E-01  9.991111E-01  1.222843E-03  0.000000E+00  9.128795E-03 -1.781206E-03 -4.664886E-16  9.016649E-02  0.000000E+00
  9.897810E-01  1.277497E-03  5.000000E-01  9.997768E-01  1.099799E-03  0.000000E+00  1.567441E-02 -1.737950E-03 -1.401860E-15  1.671929E-01  0.000000E+00
  9.900000E-01  1.236868E-03  5.000000E-01  9.999980E-01  1.058760E-03  0.000000E+00  1.260356E-02 -3.222727E-03 -1.825560E-15 -7.066266E-02  0.000000E+00
  9.900000E-01  1.423089E-03  5.000000E-01  9.999980E-01  1.246861E-03  0.000000E+00  1.129521E-03 -1.468244E-02 -1.135077E-15 -2.012902E-01  0.000000E+00
  9.900000E-01  1.609299E-03  5.000000E-01  9.999980E-01  1.434952E-03  0.000000E+00 -6.934473E-04 -1.599842E-02 -2.479965E-16 -3.304901E-02  0.000000E+00
  9.900000E-01  1.795520E-03  5.000000E-01  9.999980E-01  1.623053E-03  0.000000E+00 -3.351369E-04 -1.022452E-03  4.527095E-16 -4.539027E-02  0.000000E+00
  9.900000E-01  1.981740E-03  5.000000E-01  9.999980E-01  1.811155E-03  0.000000E+00  5.897224E-04  1.948530E-04  1.343084E-15 -1.336526E-01  0.000000E+00
  9.900000E-01  2.167961E-03  5.000000E-01  9.999980E-01  1.999256E-03  0.000000E+00  5.677095E-03 -4.548378E-03  1.915247E-15 -5.836772E-02  0.000000E+00
  9.900000E-01  2.167961E-03  5.000000E-01  9.999980E-01  1.999256E-03  0.000000E+00  5.677095E-03 -4.548378E-03  1.915247E-15 -5.836772E-02  0.000000E+00
  9.897920E-01  2.225449E-03  5.000000E-01  9.997879E-01  2.057325E-03  0.000000E+00  5.833436E-03 -2.211785E-03  1.343855E-15  4.203987E-02  0.000000E+00
  9.891660E-01  2.397742E-03  5.000000E-01  9.991556E-01  2.231357E-03  0.000000E+00  1.337991E-03 -2.995410E-04  4.442007E-16 -1.285276E-02  0.000000E+00
  9.881230E-01  2.683858E-03  5.000000E-01  9.981020E-01  2.520363E-03  0.000000E+00  1.014180E-03 -2.743467E-04  4.474398E-17 -2.323029E-02  0.000000E+00
  9.866580E-01  3.082619E-03  5.000000E-01  9.966223E-01  2.923151E-03  0.000000E+00  1.326763E-03 -3.655862E-04 -3.996429E-17 -1.876581E-02  0.000000E+00
  9.847700E-01  3.591903E-03  5.000000E-01  9.947152E-01  3.437578E-03  0.000000E+00  1.367390E-03 -3.668393E-04 -2.784442E-17 -2.003788E-02  0.000000E+00
  9.824550E-01  4.209137E-03  5.000000E-01  9.923768E-01  4.061045E-03  0.000000E+00  1.350839E-03 -3.569538E-04 -9.585172E-18 -2.445639E-02  0.000000E+00
  9.797070E-01  4.931127E-03  5.000000E-01  9.896011E-01  4.790327E-03  0.000000E+00  1.385360E-03 -3.607929E-04 -1.313123E-18 -2.976159E-02  0.000000E+00
  9.765220E-01  5.753800E-03  5.000000E-01  9.863839E-01  5.621308E-03  0.000000E+00  1.477061E-03 -3.775531E-04  7.428004E-20 -3.603139E-02  0.000000E+00
  9.728930E-01  6.672431E-03  5.000000E-01  9.827182E-01  6.549216E-03  0.000000E+00  1.618787E-03 -4.047479E-04 -6.355357E-19 -4.335896E-02  0.000000E+00
  9.688130E-01  7.681358E-03  5.000000E-01  9.785970E-01  7.568333E-03  0.000000E+00  1.802708E-03 -4.394786E-04 -5.411714E-19 -5.164423E-02  0.000000E+00
  9.642740E-01  8.774004E-03  5.000000E-01  9.740122E-01  8.672013E-03  0.000000E+00  2.020688E-03 -4.785875E-04 -7.636461E-19 -6.076619E-02  0.000000E+00
  9.592670E-01  9.942737E-03  5.000000E-01  9.689546E-01  9.852550E-03  0.000000E+00  2.265631E-03 -5.192497E-04 -6.361498E-19 -7.060546E-02  0.000000E+00
  9.537850E-01  1.117866E-02  5.000000E-01  9.634173E-01  1.110096E-02  0.000000E+00  2.530946E-03 -5.587980E-04 -1.916533E-19 -8.093235E-02  0.000000E+00
  9.478160E-01  1.247173E-02  5.000000E-01  9.573880E-01  1.240708E-02  0.000000E+00  2.809471E-03 -5.945185E-04 -2.424235E-19 -9.151675E-02  0.000000E+00
  9.413520E-01  1.381042E-02  5.000000E-01  9.508587E-01  1.375929E-02  0.000000E+00  3.093124E-03 -6.237127E-04 -7.747545E-19 -1.020555E-01  0.000000E+00
  9.343800E-01  1.518177E-02  5.000000E-01  9.438163E-01  1.514449E-02  0.000000E+00  3.371938E-03 -6.436071E-04 -1.120299E-18 -1.121663E-01  0.000000E+00
  9.268920E-01  1.657089E-02  5.000000E-01  9.362527E-01  1.654764E-02  0.000000E+00  3.633900E-03 -6.514482E-04 -2.163102E-19 -1.214462E-01  0.000000E+00
  9.188750E-01  1.796149E-02  5.000000E-01  9.281547E-01  1.795228E-02  0.000000E+00  3.864702E-03 -6.447390E-04  4.137140E-19 -1.293811E-01  0.000000E+00
  9.103190E-01  1.933529E-02  5.000000E-01  9.195123E-01  1.933995E-02  0.000000E+00  4.047177E-03 -6.214924E-04  6.124937E-19 -1.354250E-01  0.000000E+00
  9.012130E-01  2.067239E-02  5.000000E-01  9.103143E-01  2.069056E-02  0.000000E+00  4.161583E-03 -5.805496E-04  3.826711E-19 -1.390553E-01  0.000000E+00
  8.915460E-01  2.195131E-02  5.000000E-01  9.005497E-01  2.198240E-02  0.000000E+00  4.185846E-03 -5.219841E-04  5.268760E-20 -1.398771E-01  0.000000E+00
  8.813080E-01  2.315003E-02  5.000000E-01  8.902083E-01  2.319322E-02  0.000000E+00  4.093791E-03 -4.476270E-04 -2.733499E-19 -1.374581E-01  0.000000E+00
  8.704900E-01  2.424680E-02  5.000000E-01  8.792811E-01  2.430107E-02  0.000000E+00  3.854303E-03 -3.615791E-04 -3.886378E-19 -1.317451E-01  0.000000E+00
  8.704900E-01  2.424680E-02  5.000000E-01  8.792811E-01  2.430107E-02  0.000000E+00  3.854303E-03 -3.615791E-04 -3.886378E-19 -1.317451E-01  0.000000E+00
  8.590830E-01  2.522307E-02  5.000000E-01  8.677589E-01  2.528720E-02  0.000000E+00  3.439387E-03 -2.701529E-04  1.811884E-19 -1.238640E-01  0.000000E+00
  8.470810E-01  2.606840E-02  5.000000E-01  8.556357E-01  2.614106E-02  0.000000E+00  2.832774E-03 -1.827834E-04  1.496476E-19 -1.151738E-01  0.000000E+00
  8.344780E-01  2.678779E-02  5.000000E-01  8.429054E-01  2.686772E-02  0.000000E+00  2.037264E-03 -1.086981E-04  3.705741E-19 -1.078476E-01  0.000000E+00
  8.212700E-01  2.741476E-02  5.000000E-01  8.295640E-01  2.750102E-02  0.000000E+00  1.091751E-03 -5.127463E-05  8.566268E-19 -1.056363E-01  0.000000E+00
  8.074550E-01  2.803202E-02  5.000000E-01  8.156095E-01  2.812451E-02  0.000000E+00  8.231218E-05 -2.594835E-06  2.574351E-19 -1.123323E-01  0.000000E+00
  7.930350E-01  2.880063E-02  5.000000E-01  8.010439E-01  2.890088E-02  0.000000E+00 -8.685460E-04  6.260570E-05 -2.957592E-19 -1.304802E-01  0.000000E+00
  7.780130E-01  2.999004E-02  5.000000E-01  7.858701E-01  3.010231E-02  0.000000E+00 -1.643246E-03  1.731357E-04 -1.247166E-18 -1.580667E-01  0.000000E+00
  7.623950E-01  3.190497E-02  5.000000E-01  7.700944E-01  3.203658E-02  0.000000E+00 -2.184834E-03  3.255391E-04 -3.047666E-18 -1.889885E-01  0.000000E+00
  7.461930E-01  3.466808E-02  5.000000E-01  7.537288E-01  3.482759E-02  0.000000E+00 -2.507330E-03  4.915961E-04 -3.907958E-18 -2.187314E-01  0.000000E+00
  7.294180E-01  3.834593E-02  5.000000E-01  7.367844E-01  3.854259E-02  0.000000E+00 -2.664617E-03  6.491443E-04 -7.464840E-19 -2.448194E-01  0.000000E+00
  7.120900E-01  4.296915E-02  5.000000E-01  7.192814E-01  4.321249E-02  0.000000E+00 -2.718435E-03  7.852510E-04  1.322102E-18 -2.664290E-01  0.000000E+00
  6.942280E-01  4.851285E-02  5.000000E-01  7.012390E-01  4.881218E-02  0.000000E+00 -2.704626E-03  8.894854E-04  1.925839E-19 -2.862395E-01  0.000000E+00
  6.758590E-01  5.487889E-02  5.000000E-01  6.826845E-01  5.524251E-02  0.000000E+00 -2.602570E-03  9.366917E-04  1.462667E-18 -3.109009E-01  0.000000E+00
  6.570120E-01  6.189084E-02  5.000000E-01  6.636472E-01  6.232527E-02  0.000000E+00 -2.285656E-03  8.616953E-04 -3.917720E-19 -3.577594E-01  0.000000E+00
  6.377220E-01  6.925919E-02  5.000000E-01  6.441623E-01  6.976804E-02  0.000000E+00 -1.412435E-03  5.285338E-04 -2.097925E-18 -4.629747E-01  0.000000E+00
  6.180260E-01  7.651861E-02  5.000000E-01  6.242674E-01  7.710078E-02  0.000000E+00  7.109739E-04 -2.336049E-04  1.850567E-18 -6.724048E-01  0.000000E+00
  5.979670E-01  8.310887E-02  5.000000E-01  6.040059E-01  8.375758E-02  0.000000E+00  5.050240E-03 -1.399232E-03  9.339545E-18 -9.922115E-01  0.000000E+00
  5.775910E-01  8.839525E-02  5.000000E-01  5.834241E-01  8.909735E-02  0.000000E+00  1.205729E-02 -2.294620E-03  2.121794E-17 -1.318380E+00  0.000000E+00
  5.569470E-01  9.167624E-02  5.000000E-01  5.625716E-01  9.241148E-02  0.000000E+00  2.033395E-02 -1.608597E-03  2.748793E-17 -1.454496E+00  0.000000E+00
  5.360860E-01  9.227489E-02  5.000000E-01  5.414999E-01  9.301617E-02  0.000000E+00  2.646488E-02  8.994996E-04  1.524612E-17 -1.322836E+00  0.000000E+00
  5.150640E-01  9.043232E-02  5.000000E-01  5.202656E-01  9.115499E-02  0.000000E+00  2.786953E-02  3.432735E-03 -1.425146E-18 -1.037595E+00  0.000000E+00
  4.939370E-01  8.703681E-02  5.000000E-01  4.989253E-01  8.772519E-02  0.000000E+00  2.505969E-02  4.349566E-03 -3.184160E-18 -7.200773E-01  0.000000E+00
  4.727610E-01  8.303641E-02  5.000000E-01  4.775354E-01  8.368439E-02  0.000000E+00  2.014842E-02  3.648946E-03  2.942213E-18 -4.431492E-01  0.000000E+00
  5.770140E-06  7.808496E-05  5.000000E-01  5.829537E-06 -1.117258E-04  0.000000E+00  1.964921E-02 -1.280359E-01 -8.006647E-13  6.497277E-02  0.000000E+00
  9.104010E-05 -2.388006E-04  5.000000E-01  9.196064E-05 -4.318116E-04  0.000000E+00  5.829067E-02 -1.102838E-01 -7.158825E-13 -1.659618E-01  0.000000E+00
  4.796980E-04 -6.903427E-04  5.000000E-01  4.845436E-04 -8.879138E-04  0.000000E+00  7.479137E-02 -6.308925E-02 -4.813965E-13 -8.154666E-01  0.000000E+00
  1.456590E-03 -1.129683E-03  5.000000E-01  1.471301E-03 -1.331691E-03  0.000000E+00  4.842558E-02 -1.847739E-02 -2.286535E-13 -1.078452E+00  0.000000E+00
  3.096410E-03 -1.440348E-03  5.000000E-01  3.127682E-03 -1.645494E-03  0.000000E+00  1.819504E-02 -2.951125E-03 -6.675666E-14 -8.404176E-01  0.000000E+00
  5.335170E-03 -1.605711E-03  5.000000E-01  5.389051E-03 -1.812527E-03  0.000000E+00  5.331694E-03 -2.355663E-04 -1.006529E-15 -5.479645E-01  0.000000E+00
  8.129670E-03 -1.625054E-03  5.000000E-01  8.211773E-03 -1.832065E-03  0.000000E+00  2.936407E-03  6.795729E-05  1.144668E-14 -3.756190E-01  0.000000E+00
  1.145600E-02 -1.486824E-03  5.000000E-01  1.157170E-02 -1.692439E-03  0.000000E+00  3.098872E-03  2.080315E-04  7.221490E-15 -2.914477E-01  0.000000E+00
  1.529970E-02 -1.136124E-03  5.000000E-01  1.545421E-02 -1.338197E-03  0.000000E+00  2.685858E-03  3.010065E-04  2.383466E-15 -2.346172E-01  0.000000E+00
  1.962420E-02 -5.033530E-04  5.000000E-01  1.982239E-02 -6.990357E-04  0.000000E+00  1.678101E-03  2.542609E-04  2.224706E-16 -1.580525E-01  0.000000E+00
  2.439810E-02  3.711224E-04  5.000000E-01  2.464450E-02  1.842711E-04  0.000000E+00  1.287703E-03  2.325878E-04 -2.384914E-16 -4.281353E-02  0.000000E+00
  2.966100E-02  1.303771E-03  5.000000E-01  2.996055E-02  1.126338E-03  0.000000E+00  2.159389E-03  3.706974E-04 -1.629486E-16  6.627335E-02  0.000000E+00
  3.543640E-02  2.228405E-03  5.000000E-01  3.579427E-02  2.060311E-03  0.000000E+00  3.661881E-03  5.582632E-04 -5.358651E-17  1.261796E-01  0.000000E+00
  4.172970E-02  3.149288E-03  5.000000E-01  4.215113E-02  2.990493E-03  0.000000E+00  4.917442E-03  6.926271E-04 -7.155645E-18  1.538308E-01  0.000000E+00
  4.854440E-02  4.084109E-03  5.000000E-01  4.903465E-02  3.934755E-03  0.000000E+00  5.639879E-03  7.602703E-04  2.300773E-18  1.735570E-01  0.000000E+00
  5.588220E-02  5.059895E-03  5.000000E-01  5.644655E-02  4.920396E-03  0.000000E+00  5.958750E-03  7.768063E-04  1.973993E-18  1.945230E-01  0.000000E+00
  6.375220E-02  6.067729E-03  5.000000E-01  6.439603E-02  5.938408E-03  0.000000E+00  6.102397E-03  7.537330E-04  9.877579E-19  2.184381E-01  0.000000E+00
  7.217040E-02  7.070210E-03  5.000000E-01  7.289925E-02  6.951013E-03  0.000000E+00  6.244140E-03  7.011789E-04  1.308969E-18  2.421478E-01  0.000000E+00
  8.115500E-02  8.018536E-03  5.000000E-01  8.197458E-02  7.908916E-03  0.000000E+00  6.456507E-03  6.292238E-04  1.497687E-18  2.613451E-01  0.000000E+00
  9.072040E-02  8.874592E-03  5.000000E-01  9.163659E-02  8.773617E-03  0.000000E+00  6.745173E-03  5.439293E-04  9.057425E-19  2.738394E-01  0.000000E+00
  1.008780E-01  9.607751E-03  5.000000E-01  1.018968E-01  9.514180E-03  0.000000E+00  7.113412E-03  4.452335E-04  2.600499E-19  2.804859E-01  0.000000E+00
  1.116380E-01  1.018432E-02  5.000000E-01  1.127654E-01  1.009657E-02  0.000000E+00  7.591955E-03  3.302067E-04 -3.021233E-20  2.819772E-01  0.000000E+00
  1.230100E-01  1.057215E-02  5.000000E-01  1.242523E-01  1.048832E-02  0.000000E+00  8.224318E-03  1.950807E-04 -4.572702E-19  2.775002E-01  0.000000E+00
  1.350030E-01  1.074252E-02  5.000000E-01  1.363664E-01  1.066041E-02  0.000000E+00  9.042611E-03  3.634074E-05 -1.425030E-18  2.657529E-01  0.000000E+00
  1.350030E-01  1.074252E-02  5.000000E-01  1.363664E-01  1.066041E-02  0.000000E+00  9.042611E-03  3.634074E-05 -1.425030E-18  2.657529E-01  0.000000E+00
  1.476220E-01  1.067694E-02  5.000000E-01  1.491128E-01  1.059417E-02  0.000000E+00  1.003978E-02 -1.433171E-04 -1.035331E-18  2.450574E-01  0.000000E+00
  1.608730E-01  1.037899E-02  5.000000E-01  1.624977E-01  1.029321E-02  0.000000E+00  1.113601E-02 -3.223681E-04  5.713604E-19  2.138068E-01  0.000000E+00
  1.747560E-01  9.895352E-03  5.000000E-01  1.765209E-01  9.804685E-03  0.000000E+00  1.215948E-02 -4.428918E-04  1.106483E-18  1.723710E-01  0.000000E+00
  1.892730E-01  9.345318E-03  5.000000E-01  1.911845E-01  9.249097E-03  0.000000E+00  1.284986E-02 -4.031106E-04  6.502448E-19  1.228683E-01  0.000000E+00
  2.044180E-01  8.960394E-03  5.000000E-01  2.064824E-01  8.860286E-03  0.000000E+00  1.289130E-02 -1.164796E-04  2.256810E-19  6.746344E-02  0.000000E+00
  2.201880E-01  9.081050E-03  5.000000E-01  2.224117E-01  8.982160E-03  0.000000E+00  1.211388E-02  3.269725E-04 -2.549615E-19  2.484012E-02  0.000000E+00
  2.365750E-01  9.884061E-03  5.000000E-01  2.389642E-01  9.793281E-03  0.000000E+00  1.071458E-02  7.027246E-04  8.869173E-20  2.156367E-02  0.000000E+00
  2.535710E-01  1.133487E-02  5.000000E-01  2.561318E-01  1.125874E-02  0.000000E+00  9.130745E-03  8.953851E-04 -3.976602E-19  5.608501E-02  0.000000E+00
  2.711570E-01  1.332232E-02  5.000000E-01  2.738954E-01  1.326626E-02  0.000000E+00  7.783018E-03  9.304625E-04 -3.859902E-19  1.094501E-01  0.000000E+00
  2.893100E-01  1.562747E-02  5.000000E-01  2.922317E-01  1.559469E-02  0.000000E+00  6.987284E-03  8.695477E-04 -6.511014E-19  1.672186E-01  0.000000E+00
  3.080020E-01  1.790067E-02  5.000000E-01  3.111125E-01  1.789084E-02  0.000000E+00  6.937620E-03  7.385220E-04 -1.386945E-18  2.188984E-01  0.000000E+00
  3.271950E-01  1.967671E-02  5.000000E-01  3.304993E-01  1.968482E-02  0.000000E+00  7.662765E-03  5.085061E-04 -8.361051E-19  2.573241E-01  0.000000E+00
  3.468470E-01  2.052869E-02  5.000000E-01  3.503498E-01  2.054540E-02  0.000000E+00  8.874543E-03  2.251936E-04 -2.987059E-19  2.610236E-01  0.000000E+00
  3.669110E-01  2.070701E-02  5.000000E-01  3.706164E-01  2.072553E-02  0.000000E+00  9.949456E-03  5.932395E-05  8.941514E-19  2.193701E-01  0.000000E+00
  3.873360E-01  2.077277E-02  5.000000E-01  3.912477E-01  2.079195E-02  0.000000E+00  1.023294E-02  1.542197E-04  1.684307E-18  1.608458E-01  0.000000E+00
  4.080670E-01  2.134597E-02  5.000000E-01  4.121881E-01  2.137094E-02  0.000000E+00  9.328576E-03  4.959463E-04  1.453091E-18  1.154935E-01  0.000000E+00
  4.290470E-01  2.308476E-02  5.000000E-01  4.333799E-01  2.312729E-02  0.000000E+00  7.220642E-03  8.476020E-04  2.982467E-19  9.543928E-02  0.000000E+00
  4.502140E-01  2.664140E-02  5.000000E-01  4.547607E-01  2.671985E-02  0.000000E+00  4.424838E-03  8.532318E-04  2.103651E-19  1.287149E-01  0.000000E+00
  4.715070E-01  3.192398E-02  5.000000E-01  4.762687E-01  3.205578E-02  0.000000E+00  1.846176E-03  4.712787E-04  5.261970E-18  2.321076E-01  0.000000E+00
  4.928620E-01  3.803325E-02  5.000000E-01  4.978394E-01  3.822675E-02  0.000000E+00  1.246237E-04  4.381453E-05  7.275273E-18  3.530769E-01  0.000000E+00
  5.142140E-01  4.400208E-02  5.000000E-01  5.194070E-01  4.425586E-02  0.000000E+00 -7.016260E-04 -1.699905E-04  3.263079E-18  4.355904E-01  0.000000E+00
  5.355000E-01  4.885879E-02  5.000000E-01  5.409080E-01  4.916161E-02  0.000000E+00 -8.774813E-04 -1.617093E-04  1.552262E-18  4.788909E-01  0.000000E+00
  5.566560E-01  5.166408E-02  5.000000E-01  5.622777E-01  5.199524E-02  0.000000E+00 -5.774202E-04 -5.879563E-05  8.126696E-19  5.032060E-01  0.000000E+00
  4.727610E-01  8.303641E-02  5.000000E-01  4.775354E-01  8.368439E-02  0.000000E+00  2.014842E-02  3.648946E-03  2.942213E-18 -4.431492E-01  0.000000E+00
  4.515970E-01  7.940501E-02  5.000000E-01  4.561577E-01  8.001633E-02  0.000000E+00  1.499852E-02  2.177673E-03  7.413445E-18 -2.711018E-01  0.000000E+00
  4.305020E-01  7.709156E-02  5.000000E-01  4.348496E-01  7.767951E-02  0.000000E+00  1.084893E-02  8.472361E-04  7.806847E-18 -2.169966E-01  0.000000E+00
  4.095340E-01  7.637119E-02  5.000000E-01  4.136699E-01  7.695187E-02  0.000000E+00  8.333585E-03  8.711600E-05  4.307495E-18 -2.387008E-01  0.000000E+00
  3.887520E-01  7.676567E-02  5.000000E-01  3.926780E-01  7.735033E-02  0.000000E+00  7.545937E-03 -2.599196E-04  1.326240E-18 -3.098918E-01  0.000000E+00
  3.682080E-01  7.777185E-02  5.000000E-01  3.719265E-01  7.836667E-02  0.000000E+00  8.291185E-03 -4.399002E-04  1.575472E-18 -4.174439E-01  0.000000E+00
  3.479570E-01  7.891379E-02  5.000000E-01  3.514710E-01  7.952014E-02  0.000000E+00  1.016886E-02 -4.874799E-04  2.031211E-18 -5.243265E-01  0.000000E+00
  3.280470E-01  7.975464E-02  5.000000E-01  3.313599E-01  8.036948E-02  0.000000E+00  1.247882E-02 -3.342721E-04  1.064687E-18 -5.904873E-01  0.000000E+00
  3.085240E-01  8.003560E-02  5.000000E-01  3.116398E-01  8.065328E-02  0.000000E+00  1.442718E-02 -5.226961E-05  7.160899E-20 -6.190288E-01  0.000000E+00
  2.894320E-01  7.991579E-02  5.000000E-01  2.923550E-01  8.053226E-02  0.000000E+00  1.558970E-02  1.876528E-04 -2.061548E-19 -6.348803E-01  0.000000E+00
  2.708110E-01  7.958937E-02  5.000000E-01  2.735459E-01  8.020254E-02  0.000000E+00  1.601587E-02  3.189451E-04 -2.295821E-19 -6.490922E-01  0.000000E+00
  2.526960E-01  7.918581E-02  5.000000E-01  2.552480E-01  7.979490E-02  0.000000E+00  1.600251E-02  3.660744E-04 -5.171086E-19 -6.734004E-01  0.000000E+00
  2.351200E-01  7.877145E-02  5.000000E-01  2.374945E-01  7.937636E-02  0.000000E+00  1.594474E-02  3.897454E-04 -1.152355E-18 -7.206698E-01  0.000000E+00
  2.181120E-01  7.833574E-02  5.000000E-01  2.203147E-01  7.893625E-02  0.000000E+00  1.623732E-02  4.677938E-04 -4.207370E-18 -7.996022E-01  0.000000E+00
  2.017010E-01  7.780690E-02  5.000000E-01  2.037380E-01  7.840207E-02  0.000000E+00  1.718141E-02  7.090113E-04 -5.860512E-18 -9.034591E-01  0.000000E+00
  1.859190E-01  7.702399E-02  5.000000E-01  1.877966E-01  7.761126E-02  0.000000E+00  1.883727E-02  1.240910E-03 -3.275851E-18 -1.008086E+00  0.000000E+00
  1.707920E-01  7.580800E-02  5.000000E-01  1.725168E-01  7.638298E-02  0.000000E+00  2.094834E-02  2.125845E-03 -1.642131E-18 -1.091897E+00  0.000000E+00
  1.563470E-01  7.406952E-02  5.000000E-01  1.579259E-01  7.462695E-02  0.000000E+00  2.308891E-02  3.328524E-03 -1.676976E-18 -1.142550E+00  0.000000E+00
  1.426070E-01  7.179089E-02  5.000000E-01  1.440472E-01  7.232530E-02  0.000000E+00  2.485987E-02  4.739682E-03 -2.043186E-18 -1.153669E+00  0.000000E+00
  1.295900E-01  6.900609E-02  5.000000E-01  1.308987E-01  6.951239E-02  0.000000E+00  2.600832E-02  6.205776E-03 -4.496452E-18 -1.126391E+00  0.000000E+00
  1.173060E-01  6.578184E-02  5.000000E-01  1.184907E-01  6.625557E-02  0.000000E+00  2.647347E-02  7.584970E-03 -5.147033E-18 -1.066483E+00  0.000000E+00
  1.057600E-01  6.219829E-02  5.000000E-01  1.068281E-01  6.263583E-02  0.000000E+00  2.634124E-02  8.786668E-03 -1.421106E-18 -9.812226E-01  0.000000E+00
  9.495290E-02  5.833929E-02  5.000000E-01  9.591183E-02  5.873786E-02  0.000000E+00  2.576611E-02  9.772571E-03  1.347661E-18 -8.783291E-01  0.000000E+00
  8.487680E-02  5.428762E-02  5.000000E-01  8.573397E-02  5.464527E-02  0.000000E+00  2.491018E-02  1.054640E-02  4.747831E-18 -7.639244E-01  0.000000E+00
  8.487680E-02  5.428762E-02  5.000000E-01  8.573397E-02  5.464527E-02  0.000000E+00  2.491018E-02  1.054640E-02  4.747831E-18 -7.639244E-01  0.000000E+00
  7.552090E-02  5.012059E-02  5.000000E-01  7.628359E-02  5.043616E-02  0.000000E+00  2.389638E-02  1.113125E-02  1.154463E-17 -6.410627E-01  0.000000E+00
  6.687020E-02  4.590744E-02  5.000000E-01  6.754552E-02  4.618046E-02  0.000000E+00  2.279260E-02  1.153247E-02  1.521819E-17 -5.129861E-01  0.000000E+00
  5.889940E-02  4.171653E-02  5.000000E-01  5.949423E-02  4.194723E-02  0.000000E+00  2.164972E-02  1.174439E-02  1.237360E-17 -3.857888E-01  0.000000E+00
  5.157140E-02  3.761257E-02  5.000000E-01  5.209222E-02  3.780182E-02  0.000000E+00  2.054671E-02  1.180351E-02  8.415853E-18 -2.659389E-01  0.000000E+00
  4.484650E-02  3.364724E-02  5.000000E-01  4.529941E-02  3.379644E-02  0.000000E+00  1.958760E-02  1.181514E-02  7.762885E-18 -1.563115E-01  0.000000E+00
  3.869820E-02  2.985192E-02  5.000000E-01  3.908901E-02  2.996280E-02  0.000000E+00  1.886131E-02  1.191507E-02  2.376161E-18 -5.550372E-02  0.000000E+00
  3.311550E-02  2.624194E-02  5.000000E-01  3.344993E-02  2.631635E-02  0.000000E+00  1.839620E-02  1.219695E-02 -1.295906E-17  4.085768E-02  0.000000E+00
  2.809130E-02  2.282848E-02  5.000000E-01  2.837499E-02  2.286842E-02  0.000000E+00  1.806945E-02  1.263117E-02 -3.751908E-17  1.447729E-01  0.000000E+00
  2.362330E-02  1.961996E-02  5.000000E-01  2.386187E-02  1.962750E-02  0.000000E+00  1.759482E-02  1.293927E-02 -1.078202E-16  2.638696E-01  0.000000E+00
  1.966610E-02  1.663916E-02  5.000000E-01  1.986471E-02  1.661660E-02  0.000000E+00  1.686029E-02  1.274167E-02 -2.704260E-16  3.773661E-01  0.000000E+00
  1.609460E-02  1.392851E-02  5.000000E-01  1.625714E-02  1.387858E-02  0.000000E+00  1.614989E-02  1.212115E-02 -4.321590E-16  4.654165E-01  0.000000E+00
  1.282740E-02  1.150425E-02  5.000000E-01  1.295694E-02  1.142984E-02  0.000000E+00  1.585049E-02  1.162640E-02 -2.239971E-17  5.332804E-01  0.000000E+00
  9.860990E-03  9.354822E-03  5.000000E-01  9.960577E-03  9.258697E-03  0.000000E+00  1.610449E-02  1.171922E-02  2.392370E-15  5.967630E-01  0.000000E+00
  7.251350E-03  7.449747E-03  5.000000E-01  7.324582E-03  7.334383E-03  0.000000E+00  1.673110E-02  1.247482E-02  8.512814E-15  6.665641E-01  0.000000E+00
  5.038810E-03  5.768057E-03  5.000000E-01  5.089698E-03  5.635709E-03  0.000000E+00  1.729000E-02  1.363023E-02  1.661975E-14  7.432059E-01  0.000000E+00
  3.239710E-03  4.301342E-03  5.000000E-01  3.272429E-03  4.154182E-03  0.000000E+00  1.684737E-02  1.451635E-02  1.300269E-14  8.294631E-01  0.000000E+00
  1.861880E-03  3.047552E-03  5.000000E-01  1.880684E-03  2.887730E-03  0.000000E+00  1.331098E-02  1.301830E-02 -3.773334E-14  9.305642E-01  0.000000E+00
  9.013910E-04  2.011077E-03  5.000000E-01  9.104953E-04  1.840788E-03  0.000000E+00  3.444676E-03  3.064966E-03 -1.870121E-13  1.037726E+00  0.000000E+00
  3.295630E-04  1.201980E-03  5.000000E-01  3.328924E-04  1.023519E-03  0.000000E+00 -1.275050E-02 -2.764023E-02 -4.589258E-13  1.070932E+00  0.000000E+00
  7.194000E-05  6.303028E-04  5.000000E-01  7.266765E-05  4.460689E-04  0.000000E+00 -2.335483E-02 -8.760600E-02 -7.670735E-13  8.385432E-01  0.000000E+00
  4.516100E-06  2.970476E-04  5.000000E-01  4.562832E-06  1.094482E-04  0.000000E+00 -1.755038E-02 -1.472937E-01 -8.968546E-13  3.220826E-01  0.000000E+00
 -1.112850E-09  1.886937E-04  5.000000E-01  0.000000E+00  0.000000E+00  0.000000E+00 -3.175560E-03 -1.498349E-01 -8.391624E-13 -4.535967E-03  0.000000E+00