 Title = "ADflow Slice Data"
Variables =  "CoordinateX"  "CoordinateY"  "CoordinateZ"  "XoC"  "YoC"  "ZoC" "VelocityX" "VelocityY" "VelocityZ" "CoefPressure" "Mach" 
Zone T= "Slice_0001 None Absolute Regular z = 0.50000000"
 Nodes =          192  Elements=          184  ZONETYPE=FELINESEG
 DATAPACKING=POINT
  5.566560E-01  2.993439E-02  5.000000E-01  5.622776E-01  3.017596E-02  0.000000E+00  7.410444E-03  2.088009E-05  9.277455E-19  3.015858E-01  0.000000E+00
  5.776220E-01  2.991902E-02  5.000000E-01  5.834553E-01  3.016044E-02  0.000000E+00  7.438291E-03 -3.118934E-05  2.179547E-18  3.005670E-01  0.000000E+00
  5.983370E-01  2.976069E-02  5.000000E-01  6.043795E-01  3.000051E-02  0.000000E+00  7.474084E-03 -8.200658E-05  1.446087E-18  2.988158E-01  0.000000E+00
  6.187480E-01  2.946912E-02  5.000000E-01  6.249967E-01  2.970600E-02  0.000000E+00  7.515533E-03 -1.312870E-04  2.030852E-19  2.965044E-01  0.000000E+00
  6.388030E-01  2.905531E-02  5.000000E-01  6.452542E-01  2.928801E-02  0.000000E+00  7.560898E-03 -1.790594E-04 -3.490293E-19  2.937919E-01  0.000000E+00
  6.584530E-01  2.853048E-02  5.000000E-01  6.651026E-01  2.875788E-02  0.000000E+00  7.608507E-03 -2.252974E-04  3.399077E-19  2.907872E-01  0.000000E+00
  6.776550E-01  2.790639E-02  5.000000E-01  6.844985E-01  2.812748E-02  0.000000E+00  7.655606E-03 -2.695982E-04  6.646999E-19  2.874712E-01  0.000000E+00
  6.963720E-01  2.719671E-02  5.000000E-01  7.034046E-01  2.741064E-02  0.000000E+00  7.698599E-03 -3.118938E-04  2.274389E-19  2.839760E-01  0.000000E+00
  7.145680E-01  2.641259E-02  5.000000E-01  7.217843E-01  2.661860E-02  0.000000E+00  7.734214E-03 -3.524496E-04  5.870471E-19  2.804814E-01  0.000000E+00
  7.322140E-01  2.556485E-02  5.000000E-01  7.396085E-01  2.576230E-02  0.000000E+00  7.760067E-03 -3.910759E-04  6.883157E-19  2.770253E-01  0.000000E+00
  7.492860E-01  2.466452E-02  5.000000E-01  7.568529E-01  2.485288E-02  0.000000E+00  7.776605E-03 -4.273433E-04  1.511739E-18  2.737304E-01  0.000000E+00
  7.657630E-01  2.372252E-02  5.000000E-01  7.734963E-01  2.390136E-02  0.000000E+00  7.788387E-03 -4.614564E-04  1.047867E-18  2.704833E-01  0.000000E+00
  7.816300E-01  2.274898E-02  5.000000E-01  7.895236E-01  2.291799E-02  0.000000E+00  7.806263E-03 -4.982404E-04 -7.246497E-19  2.673526E-01  0.000000E+00
  7.968740E-01  2.173962E-02  5.000000E-01  8.049215E-01  2.189844E-02  0.000000E+00  7.854072E-03 -5.488154E-04 -1.548114E-18  2.653325E-01  0.000000E+00
  8.114890E-01  2.066595E-02  5.000000E-01  8.196841E-01  2.081393E-02  0.000000E+00  7.955869E-03 -6.169160E-04 -1.658838E-18  2.632166E-01  0.000000E+00
  8.254710E-01  1.952442E-02  5.000000E-01  8.338073E-01  1.966087E-02  0.000000E+00  8.111189E-03 -6.941373E-04 -5.539108E-19  2.584017E-01  0.000000E+00
  8.388180E-01  1.833023E-02  5.000000E-01  8.472891E-01  1.845462E-02  0.000000E+00  8.299945E-03 -7.714713E-04  8.583748E-19  2.507928E-01  0.000000E+00
  8.515320E-01  1.710544E-02  5.000000E-01  8.601315E-01  1.721746E-02  0.000000E+00  8.502825E-03 -8.437226E-04  1.973868E-18  2.415697E-01  0.000000E+00
  8.636180E-01  1.587219E-02  5.000000E-01  8.723396E-01  1.597175E-02  0.000000E+00  8.708242E-03 -9.087721E-04  2.982324E-18  2.315907E-01  0.000000E+00
  8.750810E-01  1.465001E-02  5.000000E-01  8.839183E-01  1.473723E-02  0.000000E+00  8.909382E-03 -9.660849E-04  2.064156E-18  2.212379E-01  0.000000E+00
  8.859290E-01  1.345446E-02  5.000000E-01  8.948759E-01  1.352961E-02  0.000000E+00  9.101998E-03 -1.015932E-03  5.062659E-19  2.107913E-01  0.000000E+00
  8.961710E-01  1.229719E-02  5.000000E-01  9.052213E-01  1.236065E-02  0.000000E+00  9.284113E-03 -1.058983E-03  4.986944E-19  2.004694E-01  0.000000E+00
  9.058170E-01  1.118681E-02  5.000000E-01  9.149647E-01  1.123906E-02  0.000000E+00  9.455432E-03 -1.096050E-03  9.555145E-19  1.904000E-01  0.000000E+00
  9.148770E-01  1.012943E-02  5.000000E-01  9.241162E-01  1.017100E-02  0.000000E+00  9.616385E-03 -1.127864E-03  1.340527E-18  1.806373E-01  0.000000E+00
  9.148770E-01  1.012943E-02  5.000000E-01  9.241162E-01  1.017100E-02  0.000000E+00  9.616385E-03 -1.127864E-03  1.340527E-18  1.806373E-01  0.000000E+00
  9.233640E-01  9.129209E-03  5.000000E-01  9.326889E-01  9.160678E-03  0.000000E+00  9.767831E-03 -1.155228E-03  1.211282E-18  1.712380E-01  0.000000E+00
  9.312880E-01  8.188819E-03  5.000000E-01  9.406930E-01  8.210791E-03  0.000000E+00  9.911164E-03 -1.178965E-03 -1.497377E-19  1.622484E-01  0.000000E+00
  9.386620E-01  7.309651E-03  5.000000E-01  9.481414E-01  7.322744E-03  0.000000E+00  1.004788E-02 -1.199800E-03 -1.672880E-18  1.536621E-01  0.000000E+00
  9.454960E-01  6.492373E-03  5.000000E-01  9.550444E-01  6.497213E-03  0.000000E+00  1.017906E-02 -1.218250E-03 -1.403055E-18  1.454481E-01  0.000000E+00
  9.518040E-01  5.736854E-03  5.000000E-01  9.614161E-01  5.734063E-03  0.000000E+00  1.030590E-02 -1.234856E-03 -6.279243E-19  1.376164E-01  0.000000E+00
  9.575950E-01  5.042699E-03  5.000000E-01  9.672656E-01  5.032899E-03  0.000000E+00  1.043055E-02 -1.250248E-03 -1.177067E-18  1.301558E-01  0.000000E+00
  9.628810E-01  4.409111E-03  5.000000E-01  9.726050E-01  4.392912E-03  0.000000E+00  1.055688E-02 -1.265128E-03 -1.346539E-18  1.230366E-01  0.000000E+00
  9.676710E-01  3.835182E-03  5.000000E-01  9.774434E-01  3.813187E-03  0.000000E+00  1.069162E-02 -1.280535E-03 -5.945694E-19  1.162503E-01  0.000000E+00
  9.719750E-01  3.319885E-03  5.000000E-01  9.817908E-01  3.292686E-03  0.000000E+00  1.084355E-02 -1.297613E-03 -1.173839E-18  1.097896E-01  0.000000E+00
  9.758020E-01  2.862146E-03  5.000000E-01  9.856565E-01  2.830325E-03  0.000000E+00  1.101637E-02 -1.316921E-03 -7.919559E-18  1.036635E-01  0.000000E+00
  9.791590E-01  2.460978E-03  5.000000E-01  9.890474E-01  2.425105E-03  0.000000E+00  1.118859E-02 -1.336198E-03 -2.447276E-17  9.773658E-02  0.000000E+00
  9.820540E-01  2.115395E-03  5.000000E-01  9.919716E-01  2.076032E-03  0.000000E+00  1.129435E-02 -1.348634E-03 -2.864308E-17  9.234670E-02  0.000000E+00
  9.844930E-01  1.824543E-03  5.000000E-01  9.944353E-01  1.782242E-03  0.000000E+00  1.121124E-02 -1.336604E-03  3.567911E-17  8.837545E-02  0.000000E+00
  9.864820E-01  1.587633E-03  5.000000E-01  9.964443E-01  1.542941E-03  0.000000E+00  1.063298E-02 -1.255005E-03  1.752091E-16  8.221156E-02  0.000000E+00
  9.880240E-01  1.404067E-03  5.000000E-01  9.980019E-01  1.357521E-03  0.000000E+00  9.079858E-03 -1.088936E-03  1.813268E-16  6.792770E-02  0.000000E+00
  9.891220E-01  1.273309E-03  5.000000E-01  9.991110E-01  1.225442E-03  0.000000E+00  8.343971E-03 -1.106671E-03 -4.366115E-16  8.459162E-02  0.000000E+00
  9.897810E-01  1.194993E-03  5.000000E-01  9.997767E-01  1.146335E-03  0.000000E+00  1.563791E-02 -6.649424E-04 -1.989486E-15  1.780976E-01  0.000000E+00
  9.900000E-01  1.168923E-03  5.000000E-01  9.999979E-01  1.120002E-03  0.000000E+00  1.309012E-02 -1.661336E-03 -2.971476E-15 -6.190299E-02  0.000000E+00
  9.900000E-01  1.355144E-03  5.000000E-01  9.999979E-01  1.308103E-03  0.000000E+00  1.212005E-03 -1.360399E-02 -2.298497E-15 -2.045347E-01  0.000000E+00
  9.900000E-01  1.541355E-03  5.000000E-01  9.999979E-01  1.496195E-03  0.000000E+00 -7.382574E-04 -1.429398E-02 -9.964350E-16 -2.462883E-02  0.000000E+00
  9.900000E-01  1.727576E-03  5.000000E-01  9.999979E-01  1.684296E-03  0.000000E+00 -4.675679E-04  3.462364E-03  3.444445E-16 -3.389675E-02  0.000000E+00
  9.900000E-01  1.913796E-03  5.000000E-01  9.999979E-01  1.872398E-03  0.000000E+00  8.128560E-04  3.548512E-03  1.906330E-15 -1.578070E-01  0.000000E+00
  9.900000E-01  2.100017E-03  5.000000E-01  9.999979E-01  2.060499E-03  0.000000E+00  8.234101E-03 -4.608058E-03  2.785218E-15 -5.971282E-02  0.000000E+00
  9.900000E-01  2.100017E-03  5.000000E-01  9.999979E-01  2.060499E-03  0.000000E+00  8.234101E-03 -4.608058E-03  2.785218E-15 -5.971282E-02  0.000000E+00
  9.897920E-01  2.143405E-03  5.000000E-01  9.997878E-01  2.104325E-03  0.000000E+00  9.100905E-03 -2.732201E-03  1.908823E-15  8.422327E-02  0.000000E+00
  9.891660E-01  2.273477E-03  5.000000E-01  9.991555E-01  2.235711E-03  0.000000E+00  3.397384E-03 -6.165989E-04  5.791063E-16  1.255705E-02  0.000000E+00
  9.881230E-01  2.489977E-03  5.000000E-01  9.981019E-01  2.454397E-03  0.000000E+00  3.262791E-03 -6.720970E-04  2.440467E-17  4.232778E-05  0.000000E+00
  9.866580E-01  2.792498E-03  5.000000E-01  9.966221E-01  2.759973E-03  0.000000E+00  3.866874E-03 -8.048857E-04 -6.640654E-17  6.439420E-03  0.000000E+00
  9.847700E-01  3.180430E-03  5.000000E-01  9.947151E-01  3.151823E-03  0.000000E+00  4.040576E-03 -8.272276E-04 -3.780955E-17  4.535591E-03  0.000000E+00
  9.824550E-01  3.653018E-03  5.000000E-01  9.923767E-01  3.629184E-03  0.000000E+00  4.103825E-03 -8.333940E-04 -1.096459E-17 -8.857219E-04  0.000000E+00
  9.797070E-01  4.209314E-03  5.000000E-01  9.896009E-01  4.191097E-03  0.000000E+00  4.196883E-03 -8.457024E-04 -4.578183E-19 -6.900175E-03  0.000000E+00
  9.765220E-01  4.848202E-03  5.000000E-01  9.863838E-01  4.836438E-03  0.000000E+00  4.331269E-03 -8.641380E-04  6.487446E-19 -1.385783E-02  0.000000E+00
  9.728930E-01  5.568405E-03  5.000000E-01  9.827181E-01  5.563914E-03  0.000000E+00  4.505655E-03 -8.886905E-04 -7.708424E-19 -2.183801E-02  0.000000E+00
  9.688130E-01  6.368451E-03  5.000000E-01  9.785969E-01  6.372039E-03  0.000000E+00  4.713823E-03 -9.180118E-04 -1.356738E-18 -3.064942E-02  0.000000E+00
  9.642740E-01  7.246734E-03  5.000000E-01  9.740121E-01  7.259192E-03  0.000000E+00  4.945789E-03 -9.498508E-04 -1.180922E-18 -4.010734E-02  0.000000E+00
  9.592670E-01  8.201498E-03  5.000000E-01  9.689545E-01  8.223598E-03  0.000000E+00  5.192606E-03 -9.823537E-04 -1.314065E-18 -5.013412E-02  0.000000E+00
  9.537850E-01  9.230844E-03  5.000000E-01  9.634171E-01  9.263339E-03  0.000000E+00  5.447896E-03 -1.014093E-03 -6.542658E-19 -6.057045E-02  0.000000E+00
  9.478160E-01  1.033276E-02  5.000000E-01  9.573879E-01  1.037638E-02  0.000000E+00  5.706653E-03 -1.044071E-03  4.914647E-20 -7.130721E-02  0.000000E+00
  9.413520E-01  1.150525E-02  5.000000E-01  9.508586E-01  1.156071E-02  0.000000E+00  5.965106E-03 -1.071657E-03 -3.225714E-19 -8.224042E-02  0.000000E+00
  9.343800E-01  1.274630E-02  5.000000E-01  9.438162E-01  1.281430E-02  0.000000E+00  6.219902E-03 -1.096384E-03 -2.973315E-19 -9.324209E-02  0.000000E+00
  9.268920E-01  1.405376E-02  5.000000E-01  9.362526E-01  1.413496E-02  0.000000E+00  6.467999E-03 -1.117959E-03 -1.016331E-19 -1.042464E-01  0.000000E+00
  9.188750E-01  1.542590E-02  5.000000E-01  9.281546E-01  1.552096E-02  0.000000E+00  6.706726E-03 -1.136217E-03 -6.157291E-19 -1.151449E-01  0.000000E+00
  9.103190E-01  1.686106E-02  5.000000E-01  9.195122E-01  1.697061E-02  0.000000E+00  6.933477E-03 -1.151185E-03  8.048923E-20 -1.258789E-01  0.000000E+00
  9.012130E-01  1.835796E-02  5.000000E-01  9.103142E-01  1.848263E-02  0.000000E+00  7.146028E-03 -1.162944E-03 -8.121401E-20 -1.363875E-01  0.000000E+00
  8.915460E-01  1.991571E-02  5.000000E-01  9.005496E-01  2.005611E-02  0.000000E+00  7.342595E-03 -1.171828E-03 -1.230424E-18 -1.466606E-01  0.000000E+00
  8.813080E-01  2.153418E-02  5.000000E-01  8.902082E-01  2.169093E-02  0.000000E+00  7.522131E-03 -1.178361E-03 -3.546584E-19 -1.567074E-01  0.000000E+00
  8.704900E-01  2.321374E-02  5.000000E-01  8.792810E-01  2.338745E-02  0.000000E+00  7.684314E-03 -1.183178E-03  7.379479E-19 -1.665570E-01  0.000000E+00
  8.704900E-01  2.321374E-02  5.000000E-01  8.792810E-01  2.338745E-02  0.000000E+00  7.684314E-03 -1.183178E-03  7.379479E-19 -1.665570E-01  0.000000E+00
  8.590830E-01  2.495578E-02  5.000000E-01  8.677588E-01  2.514708E-02  0.000000E+00  7.829903E-03 -1.187270E-03  1.008265E-18 -1.763325E-01  0.000000E+00
  8.470810E-01  2.676288E-02  5.000000E-01  8.556356E-01  2.697243E-02  0.000000E+00  7.961496E-03 -1.191745E-03  5.583189E-19 -1.862261E-01  0.000000E+00
  8.344780E-01  2.863857E-02  5.000000E-01  8.429053E-01  2.886706E-02  0.000000E+00  8.083664E-03 -1.197651E-03 -3.160808E-19 -1.964677E-01  0.000000E+00
  8.212700E-01  3.058670E-02  5.000000E-01  8.295639E-01  3.083487E-02  0.000000E+00  8.203351E-03 -1.205935E-03 -1.192853E-18 -2.074564E-01  0.000000E+00
  8.074550E-01  3.261066E-02  5.000000E-01  8.156094E-01  3.287927E-02  0.000000E+00  8.330699E-03 -1.217162E-03 -1.084185E-18 -2.197086E-01  0.000000E+00
  7.930350E-01  3.471150E-02  5.000000E-01  8.010438E-01  3.500132E-02  0.000000E+00  8.476878E-03 -1.230674E-03 -4.644670E-19 -2.333791E-01  0.000000E+00
  7.780130E-01  3.688495E-02  5.000000E-01  7.858700E-01  3.719672E-02  0.000000E+00  8.648111E-03 -1.244482E-03 -1.615911E-18 -2.480455E-01  0.000000E+00
  7.623950E-01  3.912053E-02  5.000000E-01  7.700943E-01  3.945488E-02  0.000000E+00  8.843320E-03 -1.257359E-03 -1.440403E-18 -2.635225E-01  0.000000E+00
  7.461930E-01  4.140880E-02  5.000000E-01  7.537287E-01  4.176626E-02  0.000000E+00  9.058885E-03 -1.269013E-03 -7.328258E-19 -2.798893E-01  0.000000E+00
  7.294180E-01  4.373985E-02  5.000000E-01  7.367843E-01  4.412084E-02  0.000000E+00  9.291446E-03 -1.278830E-03 -2.467369E-19 -2.970244E-01  0.000000E+00
  7.120900E-01  4.610237E-02  5.000000E-01  7.192813E-01  4.650723E-02  0.000000E+00  9.537417E-03 -1.285837E-03  1.082626E-18 -3.147825E-01  0.000000E+00
  6.942280E-01  4.848401E-02  5.000000E-01  7.012389E-01  4.891291E-02  0.000000E+00  9.793273E-03 -1.289246E-03  8.316050E-19 -3.330399E-01  0.000000E+00
  6.758590E-01  5.087194E-02  5.000000E-01  6.826844E-01  5.132497E-02  0.000000E+00  1.005585E-02 -1.288705E-03 -4.574249E-20 -3.516928E-01  0.000000E+00
  6.570120E-01  5.325341E-02  5.000000E-01  6.636471E-01  5.373049E-02  0.000000E+00  1.032260E-02 -1.284111E-03  7.838164E-19 -3.706788E-01  0.000000E+00
  6.377220E-01  5.561616E-02  5.000000E-01  6.441623E-01  5.611709E-02  0.000000E+00  1.059208E-02 -1.275702E-03  1.303688E-18 -3.900507E-01  0.000000E+00
  6.180260E-01  5.794900E-02  5.000000E-01  6.242674E-01  5.847349E-02  0.000000E+00  1.086462E-02 -1.263720E-03 -2.433436E-19 -4.099283E-01  0.000000E+00
  5.979670E-01  6.024046E-02  5.000000E-01  6.040058E-01  6.078810E-02  0.000000E+00  1.114244E-02 -1.248177E-03 -1.694063E-19 -4.305245E-01  0.000000E+00
  5.775910E-01  6.247872E-02  5.000000E-01  5.834240E-01  6.304896E-02  0.000000E+00  1.142947E-02 -1.228788E-03  3.464070E-19 -4.520425E-01  0.000000E+00
  5.569470E-01  6.465101E-02  5.000000E-01  5.625715E-01  6.524319E-02  0.000000E+00  1.172955E-02 -1.204477E-03 -8.192741E-19 -4.744033E-01  0.000000E+00
  5.360860E-01  6.674154E-02  5.000000E-01  5.414999E-01  6.735483E-02  0.000000E+00  1.204417E-02 -1.174064E-03 -1.926334E-18 -4.974799E-01  0.000000E+00
  5.150640E-01  6.873471E-02  5.000000E-01  5.202656E-01  6.936813E-02  0.000000E+00  1.237283E-02 -1.136936E-03 -1.409225E-18 -5.213036E-01  0.000000E+00
  4.939370E-01  7.061582E-02  5.000000E-01  4.989252E-01  7.126824E-02  0.000000E+00  1.271470E-02 -1.092490E-03 -1.396759E-18 -5.458779E-01  0.000000E+00
  4.727610E-01  7.237101E-02  5.000000E-01  4.775354E-01  7.304115E-02  0.000000E+00  1.306897E-02 -1.040042E-03 -2.155705E-18 -5.711856E-01  0.000000E+00
  5.770140E-06 -5.180076E-05  5.000000E-01  5.829536E-06 -1.130498E-04  0.000000E+00  3.756579E-03 -2.182174E-02 -5.509197E-13  9.103769E-01  0.000000E+00
  9.104010E-05 -3.815677E-04  5.000000E-01  9.196063E-05 -4.461470E-04  0.000000E+00  2.000886E-02 -3.481668E-02 -4.790663E-13  9.167779E-01  0.000000E+00
  4.796980E-04 -8.880853E-04  5.000000E-01  4.845435E-04 -9.577799E-04  0.000000E+00  3.858058E-02 -3.413562E-02 -3.203288E-13  6.044367E-01  0.000000E+00
  1.456590E-03 -1.466329E-03  5.000000E-01  1.471301E-03 -1.541864E-03  0.000000E+00  4.179808E-02 -1.998592E-02 -1.551128E-13  2.722577E-01  0.000000E+00
  3.096410E-03 -2.015532E-03  5.000000E-01  3.127681E-03 -2.096612E-03  0.000000E+00  3.423192E-02 -9.815986E-03 -4.814687E-14  1.584695E-01  0.000000E+00
  5.335170E-03 -2.514400E-03  5.000000E-01  5.389050E-03 -2.600519E-03  0.000000E+00  2.735983E-02 -5.284274E-03 -2.672047E-15  1.417781E-01  0.000000E+00
  8.129670E-03 -2.957264E-03  5.000000E-01  8.211772E-03 -3.047855E-03  0.000000E+00  2.315974E-02 -3.155936E-03  7.625148E-15  1.203388E-01  0.000000E+00
  1.145600E-02 -3.326364E-03  5.000000E-01  1.157169E-02 -3.420682E-03  0.000000E+00  1.998044E-02 -1.740452E-03  5.578042E-15  8.447934E-02  0.000000E+00
  1.529970E-02 -3.555211E-03  5.000000E-01  1.545421E-02 -3.651841E-03  0.000000E+00  1.658230E-02 -5.448796E-04  2.122467E-15  4.622708E-02  0.000000E+00
  1.962420E-02 -3.552042E-03  5.000000E-01  1.982238E-02 -3.648640E-03  0.000000E+00  1.304297E-02  2.404060E-04  1.949515E-16  3.829899E-02  0.000000E+00
  2.439810E-02 -3.339753E-03  5.000000E-01  2.464449E-02 -3.434206E-03  0.000000E+00  1.065764E-02  4.674898E-04 -3.666019E-16  9.145028E-02  0.000000E+00
  2.966100E-02 -3.109496E-03  5.000000E-01  2.996054E-02 -3.201624E-03  0.000000E+00  1.023048E-02  4.006462E-04 -2.973362E-16  1.569063E-01  0.000000E+00
  3.543640E-02 -2.924771E-03  5.000000E-01  3.579427E-02 -3.015034E-03  0.000000E+00  1.097125E-02  3.147069E-04 -9.647512E-17  1.751321E-01  0.000000E+00
  4.172970E-02 -2.766550E-03  5.000000E-01  4.215112E-02 -2.855215E-03  0.000000E+00  1.173208E-02  2.914812E-04  3.274427E-17  1.613039E-01  0.000000E+00
  4.854440E-02 -2.596341E-03  5.000000E-01  4.903464E-02 -2.683287E-03  0.000000E+00  1.205390E-02  3.429744E-04  6.631761E-17  1.425884E-01  0.000000E+00
  5.588220E-02 -2.360404E-03  5.000000E-01  5.644655E-02 -2.444967E-03  0.000000E+00  1.200204E-02  4.338404E-04  4.940044E-17  1.306611E-01  0.000000E+00
  6.375220E-02 -2.042145E-03  5.000000E-01  6.439603E-02 -2.123494E-03  0.000000E+00  1.181097E-02  5.104904E-04  2.241854E-17  1.286303E-01  0.000000E+00
  7.217040E-02 -1.653876E-03  5.000000E-01  7.289924E-02 -1.731304E-03  0.000000E+00  1.166709E-02  5.536223E-04  2.601024E-18  1.319535E-01  0.000000E+00
  8.115500E-02 -1.216315E-03  5.000000E-01  8.197457E-02 -1.289324E-03  0.000000E+00  1.162000E-02  5.777960E-04 -6.081779E-18  1.341215E-01  0.000000E+00
  9.072040E-02 -7.322622E-04  5.000000E-01  9.163657E-02 -8.003831E-04  0.000000E+00  1.161958E-02  6.040914E-04 -6.045538E-18  1.320635E-01  0.000000E+00
  1.008780E-01 -1.902416E-04  5.000000E-01  1.018968E-01 -2.528888E-04  0.000000E+00  1.160630E-02  6.399804E-04 -3.249193E-18  1.278559E-01  0.000000E+00
  1.116380E-01  4.227760E-04  5.000000E-01  1.127654E-01  3.663196E-04  0.000000E+00  1.155035E-02  6.854383E-04 -1.460624E-18  1.239259E-01  0.000000E+00
  1.230100E-01  1.124859E-03  5.000000E-01  1.242523E-01  1.075493E-03  0.000000E+00  1.143332E-02  7.400049E-04 -1.444465E-18  1.209879E-01  0.000000E+00
  1.350030E-01  1.937294E-03  5.000000E-01  1.363664E-01  1.896132E-03  0.000000E+00  1.123449E-02  8.015503E-04 -1.684506E-18  1.196282E-01  0.000000E+00
  1.350030E-01  1.937294E-03  5.000000E-01  1.363664E-01  1.896132E-03  0.000000E+00  1.123449E-02  8.015503E-04 -1.684506E-18  1.196282E-01  0.000000E+00
  1.476220E-01  2.884086E-03  5.000000E-01  1.491128E-01  2.852486E-03  0.000000E+00  1.093685E-02  8.660682E-04 -1.111930E-18  1.207962E-01  0.000000E+00
  1.608730E-01  3.990446E-03  5.000000E-01  1.624976E-01  3.970019E-03  0.000000E+00  1.053844E-02  9.279226E-04 -8.381288E-19  1.256302E-01  0.000000E+00
  1.747560E-01  5.279128E-03  5.000000E-01  1.765208E-01  5.271716E-03  0.000000E+00  1.005959E-02  9.793980E-04  5.893632E-19  1.349753E-01  0.000000E+00
  1.892730E-01  6.761533E-03  5.000000E-01  1.911844E-01  6.769091E-03  0.000000E+00  9.543666E-03  1.008975E-03  1.858748E-18  1.491341E-01  0.000000E+00
  2.044180E-01  8.421943E-03  5.000000E-01  2.064824E-01  8.446269E-03  0.000000E+00  9.058514E-03  1.003136E-03  2.427868E-19  1.690416E-01  0.000000E+00
  2.201880E-01  1.018833E-02  5.000000E-01  2.224116E-01  1.023049E-02  0.000000E+00  8.664988E-03  9.640350E-04 -1.487564E-18  1.921354E-01  0.000000E+00
  2.365750E-01  1.199637E-02  5.000000E-01  2.389641E-01  1.205679E-02  0.000000E+00  8.370617E-03  9.098901E-04 -1.581780E-18  2.123843E-01  0.000000E+00
  2.535710E-01  1.381322E-02  5.000000E-01  2.561318E-01  1.389200E-02  0.000000E+00  8.145996E-03  8.521974E-04 -2.030308E-18  2.281870E-01  0.000000E+00
  2.711570E-01  1.561217E-02  5.000000E-01  2.738954E-01  1.570911E-02  0.000000E+00  7.968710E-03  7.927643E-04 -2.072212E-18  2.414786E-01  0.000000E+00
  2.893100E-01  1.736691E-02  5.000000E-01  2.922317E-01  1.748157E-02  0.000000E+00  7.832753E-03  7.313030E-04 -1.566037E-18  2.534394E-01  0.000000E+00
  3.080020E-01  1.904948E-02  5.000000E-01  3.111125E-01  1.918113E-02  0.000000E+00  7.734236E-03  6.689913E-04 -8.100612E-19  2.637383E-01  0.000000E+00
  3.271950E-01  2.064086E-02  5.000000E-01  3.304993E-01  2.078858E-02  0.000000E+00  7.663902E-03  6.075412E-04  5.458609E-20  2.719743E-01  0.000000E+00
  3.468470E-01  2.212655E-02  5.000000E-01  3.503498E-01  2.228927E-02  0.000000E+00  7.611278E-03  5.479058E-04  1.504983E-19  2.784794E-01  0.000000E+00
  3.669110E-01  2.349786E-02  5.000000E-01  3.706164E-01  2.367444E-02  0.000000E+00  7.567960E-03  4.909889E-04  1.413177E-20  2.835956E-01  0.000000E+00
  3.873360E-01  2.475159E-02  5.000000E-01  3.912477E-01  2.494083E-02  0.000000E+00  7.528412E-03  4.368193E-04 -6.049891E-19  2.876759E-01  0.000000E+00
  4.080670E-01  2.588462E-02  5.000000E-01  4.121880E-01  2.608530E-02  0.000000E+00  7.491169E-03  3.841328E-04 -8.249356E-19  2.912034E-01  0.000000E+00
  4.290470E-01  2.688946E-02  5.000000E-01  4.333799E-01  2.710029E-02  0.000000E+00  7.457742E-03  3.318632E-04 -7.338372E-19  2.943596E-01  0.000000E+00
  4.502140E-01  2.775910E-02  5.000000E-01  4.547607E-01  2.797871E-02  0.000000E+00  7.429667E-03  2.799200E-04 -5.442402E-19  2.969814E-01  0.000000E+00
  4.715070E-01  2.848838E-02  5.000000E-01  4.762687E-01  2.871535E-02  0.000000E+00  7.407714E-03  2.284405E-04 -6.665421E-19  2.989815E-01  0.000000E+00
  4.928620E-01  2.907383E-02  5.000000E-01  4.978393E-01  2.930672E-02  0.000000E+00  7.392951E-03  1.772315E-04 -1.329343E-18  3.004161E-01  0.000000E+00
  5.142140E-01  2.951215E-02  5.000000E-01  5.194070E-01  2.974946E-02  0.000000E+00  7.387369E-03  1.256928E-04 -1.085751E-18  3.013753E-01  0.000000E+00
  5.355000E-01  2.979957E-02  5.000000E-01  5.409079E-01  3.003979E-02  0.000000E+00  7.393005E-03  7.345880E-05 -3.258890E-19  3.018171E-01  0.000000E+00
  5.566560E-01  2.993439E-02  5.000000E-01  5.622776E-01  3.017596E-02  0.000000E+00  7.410444E-03  2.088009E-05  9.277455E-19  3.015858E-01  0.000000E+00
  4.727610E-01  7.237101E-02  5.000000E-01  4.775354E-01  7.304115E-02  0.000000E+00  1.306897E-02 -1.040042E-03 -2.155705E-18 -5.711856E-01  0.000000E+00
  4.515970E-01  7.398715E-02  5.000000E-01  4.561576E-01  7.467361E-02  0.000000E+00  1.343495E-02 -9.788573E-04 -1.846644E-18 -5.971598E-01  0.000000E+00
  4.305020E-01  7.545229E-02  5.000000E-01  4.348496E-01  7.615354E-02  0.000000E+00  1.381222E-02 -9.083556E-04 -2.719024E-18 -6.238563E-01  0.000000E+00
  4.095340E-01  7.675588E-02  5.000000E-01  4.136698E-01  7.747031E-02  0.000000E+00  1.420247E-02 -8.284927E-04 -3.020940E-18 -6.518073E-01  0.000000E+00
  3.887520E-01  7.789030E-02  5.000000E-01  3.926780E-01  7.861618E-02  0.000000E+00  1.461231E-02 -7.380933E-04 -1.720663E-18 -6.816199E-01  0.000000E+00
  3.682080E-01  7.884636E-02  5.000000E-01  3.719265E-01  7.958189E-02  0.000000E+00  1.505110E-02 -6.334306E-04 -4.714907E-19 -7.133578E-01  0.000000E+00
  3.479570E-01  7.961105E-02  5.000000E-01  3.514710E-01  8.035431E-02  0.000000E+00  1.552497E-02 -5.096834E-04 -9.749564E-20 -7.466147E-01  0.000000E+00
  3.280470E-01  8.016951E-02  5.000000E-01  3.313599E-01  8.091840E-02  0.000000E+00  1.603417E-02 -3.636905E-04 -1.690894E-20 -7.810897E-01  0.000000E+00
  3.085240E-01  8.051081E-02  5.000000E-01  3.116397E-01  8.126315E-02  0.000000E+00  1.657628E-02 -1.939621E-04 -1.919382E-19 -8.167274E-01  0.000000E+00
  2.894320E-01  8.062777E-02  5.000000E-01  2.923549E-01  8.138129E-02  0.000000E+00  1.715006E-02  2.383603E-06 -1.419743E-18 -8.535860E-01  0.000000E+00
  2.708110E-01  8.051292E-02  5.000000E-01  2.735459E-01  8.126529E-02  0.000000E+00  1.776088E-02  2.299324E-04 -2.221539E-18 -8.931480E-01  0.000000E+00
  2.526960E-01  8.015878E-02  5.000000E-01  2.552479E-01  8.090757E-02  0.000000E+00  1.843683E-02  4.959157E-04 -2.663510E-18 -9.390927E-01  0.000000E+00
  2.351200E-01  7.955975E-02  5.000000E-01  2.374944E-01  8.030248E-02  0.000000E+00  1.923479E-02  8.260106E-04 -3.684438E-18 -9.920262E-01  0.000000E+00
  2.181120E-01  7.868529E-02  5.000000E-01  2.203147E-01  7.941920E-02  0.000000E+00  2.019288E-02  1.266131E-03 -3.875766E-18 -1.045832E+00  0.000000E+00
  2.017010E-01  7.748086E-02  5.000000E-01  2.037380E-01  7.820261E-02  0.000000E+00  2.127741E-02  1.843849E-03 -2.099658E-18 -1.094791E+00  0.000000E+00
  1.859190E-01  7.591424E-02  5.000000E-01  1.877966E-01  7.662017E-02  0.000000E+00  2.241040E-02  2.559857E-03  5.754833E-20 -1.136036E+00  0.000000E+00
  1.707920E-01  7.397100E-02  5.000000E-01  1.725168E-01  7.465729E-02  0.000000E+00  2.351251E-02  3.411808E-03  3.767747E-19 -1.165272E+00  0.000000E+00
  1.563470E-01  7.164556E-02  5.000000E-01  1.579259E-01  7.230838E-02  0.000000E+00  2.450164E-02  4.390595E-03 -2.691909E-19 -1.177164E+00  0.000000E+00
  1.426070E-01  6.894308E-02  5.000000E-01  1.440472E-01  6.957860E-02  0.000000E+00  2.529098E-02  5.464394E-03 -1.079745E-18 -1.167813E+00  0.000000E+00
  1.295900E-01  6.588568E-02  5.000000E-01  1.308987E-01  6.649033E-02  0.000000E+00  2.580696E-02  6.577326E-03 -2.729948E-18 -1.136227E+00  0.000000E+00
  1.173060E-01  6.251343E-02  5.000000E-01  1.184907E-01  6.308402E-02  0.000000E+00  2.601105E-02  7.668218E-03 -2.879485E-18 -1.083461E+00  0.000000E+00
  1.057600E-01  5.887658E-02  5.000000E-01  1.068281E-01  5.941044E-02  0.000000E+00  2.590388E-02  8.685623E-03  9.242364E-19 -1.011741E+00  0.000000E+00
  9.495290E-02  5.503175E-02  5.000000E-01  9.591182E-02  5.552678E-02  0.000000E+00  2.551937E-02  9.589577E-03  4.187671E-18 -9.247264E-01  0.000000E+00
  8.487680E-02  5.104009E-02  5.000000E-01  8.573396E-02  5.149481E-02  0.000000E+00  2.491497E-02  1.035803E-02  6.879845E-18 -8.256811E-01  0.000000E+00
  8.487680E-02  5.104009E-02  5.000000E-01  8.573396E-02  5.149481E-02  0.000000E+00  2.491497E-02  1.035803E-02  6.879845E-18 -8.256811E-01  0.000000E+00
  7.552090E-02  4.696304E-02  5.000000E-01  7.628358E-02  4.737659E-02  0.000000E+00  2.414137E-02  1.098013E-02  1.191881E-17 -7.157662E-01  0.000000E+00
  6.687020E-02  4.285911E-02  5.000000E-01  6.754551E-02  4.323121E-02  0.000000E+00  2.322280E-02  1.142597E-02  1.561582E-17 -5.976443E-01  0.000000E+00
  5.889940E-02  3.879177E-02  5.000000E-01  5.949422E-02  3.912279E-02  0.000000E+00  2.219306E-02  1.166045E-02  1.428162E-17 -4.783459E-01  0.000000E+00
  5.157140E-02  3.482537E-02  5.000000E-01  5.209221E-02  3.511634E-02  0.000000E+00  2.114154E-02  1.170816E-02  8.494867E-18 -3.660342E-01  0.000000E+00
  4.484650E-02  3.101259E-02  5.000000E-01  4.529940E-02  3.126506E-02  0.000000E+00  2.020457E-02  1.168552E-02  5.785524E-18 -2.649304E-01  0.000000E+00
  3.869820E-02  2.738371E-02  5.000000E-01  3.908901E-02  2.759953E-02  0.000000E+00  1.951283E-02  1.175427E-02 -1.797196E-18 -1.740473E-01  0.000000E+00
  3.311550E-02  2.395045E-02  5.000000E-01  3.344993E-02  2.413160E-02  0.000000E+00  1.912557E-02  1.203049E-02 -2.326611E-17 -8.812699E-02  0.000000E+00
  2.809130E-02  2.072018E-02  5.000000E-01  2.837499E-02  2.086871E-02  0.000000E+00  1.889809E-02  1.247694E-02 -5.463525E-17  8.176738E-03  0.000000E+00
  2.362330E-02  1.769686E-02  5.000000E-01  2.386187E-02  1.781485E-02  0.000000E+00  1.844043E-02  1.274121E-02 -1.076750E-16  1.249863E-01  0.000000E+00
  1.966610E-02  1.490443E-02  5.000000E-01  1.986471E-02  1.499422E-02  0.000000E+00  1.753910E-02  1.234147E-02 -1.679836E-16  2.365424E-01  0.000000E+00
  1.609460E-02  1.239603E-02  5.000000E-01  1.625714E-02  1.246049E-02  0.000000E+00  1.651184E-02  1.137357E-02 -8.822132E-17  3.156404E-01  0.000000E+00
  1.282740E-02  1.019099E-02  5.000000E-01  1.295694E-02  1.023318E-02  0.000000E+00  1.593207E-02  1.053841E-02  5.496433E-16  3.648460E-01  0.000000E+00
  9.860990E-03  8.270028E-03  5.000000E-01  9.960576E-03  8.292820E-03  0.000000E+00  1.620387E-02  1.047461E-02  2.418707E-15  4.021827E-01  0.000000E+00
  7.251350E-03  6.587559E-03  5.000000E-01  7.324582E-03  6.593360E-03  0.000000E+00  1.741066E-02  1.143629E-02  5.555790E-15  4.422094E-01  0.000000E+00
  5.038810E-03  5.110436E-03  5.000000E-01  5.089697E-03  5.101320E-03  0.000000E+00  1.944881E-02  1.349139E-02  6.651454E-15  4.875800E-01  0.000000E+00
  3.239710E-03  3.821772E-03  5.000000E-01  3.272429E-03  3.799642E-03  0.000000E+00  2.197412E-02  1.678832E-02 -5.276773E-15  5.449717E-01  0.000000E+00
  1.861880E-03  2.712429E-03  5.000000E-01  1.880684E-03  2.679095E-03  0.000000E+00  2.372697E-02  2.113093E-02 -5.088398E-14  6.311378E-01  0.000000E+00
  9.013910E-04  1.781455E-03  5.000000E-01  9.104951E-04  1.738720E-03  0.000000E+00  2.170847E-02  2.431116E-02 -1.515255E-13  7.676754E-01  0.000000E+00
  3.295630E-04  1.037173E-03  5.000000E-01  3.328923E-04  9.869214E-04  0.000000E+00  1.311899E-02  1.966094E-02 -3.045099E-13  9.384873E-01  0.000000E+00
  7.194000E-05  4.947527E-04  5.000000E-01  7.266764E-05  4.390232E-04  0.000000E+00  2.327129E-03  4.148270E-04 -4.587914E-13  1.023028E+00  0.000000E+00
  4.516100E-06  1.684340E-04  5.000000E-01  4.562832E-06  1.094091E-04  0.000000E+00 -2.268432E-03 -2.164166E-02 -5.398481E-13  9.269699E-01  0.000000E+00
 -1.112850E-09  6.011881E-05  5.000000E-01  0.000000E+00  0.000000E+00  0.000000E+00 -1.308624E-03 -2.260940E-02 -5.554087E-13  8.270983E-01  0.000000E+00