 Title = "ADflow Slice Data"
Variables =  "CoordinateX"  "CoordinateY"  "CoordinateZ"  "XoC"  "YoC"  "ZoC" "VelocityX" "VelocityY" "VelocityZ" "CoefPressure" "Mach" 
Zone T= "Slice_0001 None Absolute Regular z = 0.50000000"
 Nodes =          192  Elements=          184  ZONETYPE=FELINESEG
 DATAPACKING=POINT
  5.566560E-01  4.402527E-02  5.000000E-01  5.622777E-01  4.448391E-02  0.000000E+00  5.804608E-03 -2.808602E-04 -3.675677E-18  4.285766E-01  0.000000E+00
  5.776220E-01  4.292095E-02  5.000000E-01  5.834555E-01  4.336844E-02  0.000000E+00  5.733823E-03 -3.560328E-04 -3.361519E-18  4.296401E-01  0.000000E+00
  5.983370E-01  4.144506E-02  5.000000E-01  6.043797E-01  4.187764E-02  0.000000E+00  5.816810E-03 -4.980451E-04 -3.196817E-18  4.358855E-01  0.000000E+00
  6.187480E-01  3.940958E-02  5.000000E-01  6.249968E-01  3.982160E-02  0.000000E+00  6.174672E-03 -7.357498E-04 -2.558295E-18  4.364943E-01  0.000000E+00
  6.388030E-01  3.665756E-02  5.000000E-01  6.452543E-01  3.704179E-02  0.000000E+00  6.869804E-03 -1.110282E-03 -2.548304E-18  4.257074E-01  0.000000E+00
  6.584530E-01  3.306582E-02  5.000000E-01  6.651028E-01  3.341378E-02  0.000000E+00  7.927340E-03 -1.657004E-03 -2.347399E-18  4.027996E-01  0.000000E+00
  6.776550E-01  2.861901E-02  5.000000E-01  6.844987E-01  2.892206E-02  0.000000E+00  9.295766E-03 -2.306887E-03 -4.649876E-19  3.572482E-01  0.000000E+00
  6.963720E-01  2.370043E-02  5.000000E-01  7.034047E-01  2.395380E-02  0.000000E+00  1.081507E-02 -2.894501E-03 -1.023640E-18  2.822916E-01  0.000000E+00
  7.145680E-01  1.875369E-02  5.000000E-01  7.217845E-01  1.895711E-02  0.000000E+00  1.229861E-02 -3.289446E-03 -1.360373E-19  1.915066E-01  0.000000E+00
  7.322140E-01  1.410577E-02  5.000000E-01  7.396087E-01  1.426225E-02  0.000000E+00  1.360489E-02 -3.437876E-03  2.586606E-18  9.996578E-02  0.000000E+00
  7.492860E-01  9.960558E-03  5.000000E-01  7.568531E-01  1.007517E-02  0.000000E+00  1.463548E-02 -3.344682E-03  1.350040E-18  1.589262E-02  0.000000E+00
  7.657630E-01  6.417555E-03  5.000000E-01  7.734965E-01  6.496390E-03  0.000000E+00  1.532880E-02 -3.054175E-03 -7.742784E-19 -5.577564E-02  0.000000E+00
  7.816300E-01  3.499238E-03  5.000000E-01  7.895238E-01  3.548600E-03  0.000000E+00  1.566395E-02 -2.627968E-03 -6.965536E-19 -1.121598E-01  0.000000E+00
  7.968740E-01  1.185858E-03  5.000000E-01  8.049217E-01  1.211857E-03  0.000000E+00  1.565942E-02 -2.130314E-03 -1.779672E-19 -1.525722E-01  0.000000E+00
  8.114890E-01 -5.695727E-04  5.000000E-01  8.196843E-01 -5.613015E-04  0.000000E+00  1.537574E-02 -1.628488E-03  9.655597E-20 -1.766064E-01  0.000000E+00
  8.254710E-01 -1.845670E-03  5.000000E-01  8.338075E-01 -1.850286E-03  0.000000E+00  1.490727E-02 -1.177121E-03 -8.735843E-20 -1.854641E-01  0.000000E+00
  8.388180E-01 -2.729212E-03  5.000000E-01  8.472893E-01 -2.742751E-03  0.000000E+00  1.434718E-02 -7.997411E-04 -4.663869E-19 -1.834191E-01  0.000000E+00
  8.515320E-01 -3.299817E-03  5.000000E-01  8.601317E-01 -3.319119E-03  0.000000E+00  1.375999E-02 -4.963458E-04 -9.152973E-19 -1.749516E-01  0.000000E+00
  8.636180E-01 -3.624996E-03  5.000000E-01  8.723398E-01 -3.647581E-03  0.000000E+00  1.318110E-02 -2.568754E-04 -1.331808E-18 -1.629581E-01  0.000000E+00
  8.750810E-01 -3.759779E-03  5.000000E-01  8.839185E-01 -3.783726E-03  0.000000E+00  1.262796E-02 -6.945414E-05 -1.910384E-19 -1.489987E-01  0.000000E+00
  8.859290E-01 -3.748658E-03  5.000000E-01  8.948761E-01 -3.772493E-03  0.000000E+00  1.210895E-02  7.640952E-05  4.365766E-19 -1.339563E-01  0.000000E+00
  8.961710E-01 -3.627668E-03  5.000000E-01  9.052215E-01 -3.650280E-03  0.000000E+00  1.162684E-02  1.895215E-04  1.979419E-19 -1.184832E-01  0.000000E+00
  9.058170E-01 -3.425443E-03  5.000000E-01  9.149649E-01 -3.446014E-03  0.000000E+00  1.118021E-02  2.771078E-04 -4.255537E-19 -1.030418E-01  0.000000E+00
  9.148770E-01 -3.164966E-03  5.000000E-01  9.241164E-01 -3.182906E-03  0.000000E+00  1.076494E-02  3.449041E-04 -1.316691E-18 -8.791626E-02  0.000000E+00
  9.148770E-01 -3.164966E-03  5.000000E-01  9.241164E-01 -3.182906E-03  0.000000E+00  1.076494E-02  3.449041E-04 -1.316691E-18 -8.791626E-02  0.000000E+00
  9.233640E-01 -2.864094E-03  5.000000E-01  9.326891E-01 -2.878996E-03  0.000000E+00  1.037614E-02  3.971265E-04 -1.609095E-18 -7.321268E-02  0.000000E+00
  9.312880E-01 -2.537631E-03  5.000000E-01  9.406932E-01 -2.549236E-03  0.000000E+00  1.000953E-02  4.368650E-04  1.919185E-19 -5.896391E-02  0.000000E+00
  9.386620E-01 -2.197104E-03  5.000000E-01  9.481416E-01 -2.205270E-03  0.000000E+00  9.661424E-03  4.665520E-04  2.028502E-18 -4.520757E-02  0.000000E+00
  9.454960E-01 -1.852158E-03  5.000000E-01  9.550447E-01 -1.856840E-03  0.000000E+00  9.328297E-03  4.880934E-04 -3.518930E-19 -3.198618E-02  0.000000E+00
  9.518040E-01 -1.510015E-03  5.000000E-01  9.614164E-01 -1.511242E-03  0.000000E+00  9.007148E-03  5.028711E-04 -2.399034E-18 -1.929406E-02  0.000000E+00
  9.575950E-01 -1.177136E-03  5.000000E-01  9.672659E-01 -1.175001E-03  0.000000E+00  8.696551E-03  5.120175E-04 -1.145738E-18 -7.109413E-03  0.000000E+00
  9.628810E-01 -8.582691E-04  5.000000E-01  9.726052E-01 -8.529135E-04  0.000000E+00  8.396736E-03  5.165813E-04  3.009458E-19  4.534318E-03  0.000000E+00
  9.676710E-01 -5.576097E-04  5.000000E-01  9.774436E-01 -5.492176E-04  0.000000E+00  8.109253E-03  5.174697E-04  1.846218E-18  1.560265E-02  0.000000E+00
  9.719750E-01 -2.782916E-04  5.000000E-01  9.817911E-01 -2.670787E-04  0.000000E+00  7.835691E-03  5.155139E-04  2.853859E-18  2.605534E-02  0.000000E+00
  9.758020E-01 -2.289944E-05  5.000000E-01  9.856567E-01 -9.107301E-06  0.000000E+00  7.574184E-03  5.112158E-04  3.503958E-18  3.590409E-02  0.000000E+00
  9.791590E-01  2.063272E-04  5.000000E-01  9.890476E-01  2.224344E-04  0.000000E+00  7.309627E-03  5.039575E-04  4.284355E-18  4.498159E-02  0.000000E+00
  9.820540E-01  4.078634E-04  5.000000E-01  9.919719E-01  4.260058E-04  0.000000E+00  7.008021E-03  4.907429E-04  1.229671E-17  5.331374E-02  0.000000E+00
  9.844930E-01  5.803601E-04  5.000000E-01  9.944355E-01  6.002446E-04  0.000000E+00  6.627774E-03  4.703191E-04  3.356807E-17  6.159388E-02  0.000000E+00
  9.864820E-01  7.228901E-04  5.000000E-01  9.964446E-01  7.442140E-04  0.000000E+00  6.040393E-03  4.435331E-04  4.760599E-17  6.740951E-02  0.000000E+00
  9.880240E-01  8.344388E-04  5.000000E-01  9.980022E-01  8.568893E-04  0.000000E+00  4.918860E-03  3.577724E-04 -4.748375E-17  6.301619E-02  0.000000E+00
  9.891220E-01  9.143166E-04  5.000000E-01  9.991112E-01  9.375737E-04  0.000000E+00  4.484290E-03  2.214036E-04 -4.932592E-16  7.527966E-02  0.000000E+00
  9.897810E-01  9.626151E-04  5.000000E-01  9.997769E-01  9.863601E-04  0.000000E+00  1.069859E-02  1.625647E-03 -1.438935E-15  1.622282E-01  0.000000E+00
  9.900000E-01  9.786548E-04  5.000000E-01  9.999981E-01  1.002562E-03  0.000000E+00  9.684055E-03  1.192211E-03 -1.859222E-15 -2.809927E-03  0.000000E+00
  9.900000E-01  1.164875E-03  5.000000E-01  9.999981E-01  1.190662E-03  0.000000E+00  9.391215E-04 -9.078813E-03 -1.202667E-15 -1.119394E-01  0.000000E+00
  9.900000E-01  1.351085E-03  5.000000E-01  9.999981E-01  1.378753E-03  0.000000E+00 -5.761977E-04 -9.895218E-03 -3.758405E-16  2.981472E-02  0.000000E+00
  9.900000E-01  1.537305E-03  5.000000E-01  9.999981E-01  1.566854E-03  0.000000E+00 -4.473178E-04  4.834060E-03  3.261472E-16  2.890439E-02  0.000000E+00
  9.900000E-01  1.723525E-03  5.000000E-01  9.999981E-01  1.754955E-03  0.000000E+00  7.525860E-04  4.804724E-03  1.419063E-15 -8.661611E-02  0.000000E+00
  9.900000E-01  1.909745E-03  5.000000E-01  9.999981E-01  1.943056E-03  0.000000E+00  7.612761E-03 -2.255103E-03  2.213940E-15  6.414727E-03  0.000000E+00
  9.900000E-01  1.909745E-03  5.000000E-01  9.999981E-01  1.943056E-03  0.000000E+00  7.612761E-03 -2.255103E-03  2.213940E-15  6.414727E-03  0.000000E+00
  9.897920E-01  1.913888E-03  5.000000E-01  9.997880E-01  1.947240E-03  0.000000E+00  8.605965E-03 -1.039439E-03  1.577175E-15  1.580381E-01  0.000000E+00
  9.891660E-01  1.926118E-03  5.000000E-01  9.991557E-01  1.959594E-03  0.000000E+00  3.691297E-03 -6.118250E-08  5.107650E-16  9.651646E-02  0.000000E+00
  9.881230E-01  1.947170E-03  5.000000E-01  9.981022E-01  1.980858E-03  0.000000E+00  3.938315E-03 -6.790630E-05  4.408907E-17  7.955494E-02  0.000000E+00
  9.866580E-01  1.977049E-03  5.000000E-01  9.966224E-01  2.011039E-03  0.000000E+00  4.871107E-03 -1.090996E-04 -4.922147E-17  8.960301E-02  0.000000E+00
  9.847700E-01  2.016869E-03  5.000000E-01  9.947153E-01  2.051261E-03  0.000000E+00  5.109862E-03 -1.108034E-04 -3.231879E-17  9.492631E-02  0.000000E+00
  9.824550E-01  2.067616E-03  5.000000E-01  9.923769E-01  2.102520E-03  0.000000E+00  5.021668E-03 -1.115299E-04 -1.025771E-17  9.680744E-02  0.000000E+00
  9.797070E-01  2.130320E-03  5.000000E-01  9.896012E-01  2.165858E-03  0.000000E+00  4.858287E-03 -1.137578E-04  1.651806E-19  9.893270E-02  0.000000E+00
  9.765220E-01  2.206861E-03  5.000000E-01  9.863840E-01  2.243172E-03  0.000000E+00  4.682284E-03 -1.158342E-04  2.822756E-18  1.012765E-01  0.000000E+00
  9.728930E-01  2.299081E-03  5.000000E-01  9.827183E-01  2.336323E-03  0.000000E+00  4.513383E-03 -1.183581E-04  1.815845E-18  1.035208E-01  0.000000E+00
  9.688130E-01  2.409362E-03  5.000000E-01  9.785971E-01  2.447718E-03  0.000000E+00  4.356905E-03 -1.217927E-04  1.483521E-18  1.056786E-01  0.000000E+00
  9.642740E-01  2.540566E-03  5.000000E-01  9.740123E-01  2.580246E-03  0.000000E+00  4.207542E-03 -1.261258E-04  2.015275E-18  1.078628E-01  0.000000E+00
  9.592670E-01  2.696088E-03  5.000000E-01  9.689547E-01  2.737339E-03  0.000000E+00  4.057101E-03 -1.311835E-04  3.854474E-18  1.100126E-01  0.000000E+00
  9.537850E-01  2.880490E-03  5.000000E-01  9.634174E-01  2.923604E-03  0.000000E+00  3.899597E-03 -1.366638E-04  6.107199E-18  1.121170E-01  0.000000E+00
  9.478160E-01  3.098367E-03  5.000000E-01  9.573881E-01  3.143681E-03  0.000000E+00  3.731005E-03 -1.424058E-04  3.592178E-18  1.141570E-01  0.000000E+00
  9.413520E-01  3.356230E-03  5.000000E-01  9.508588E-01  3.404149E-03  0.000000E+00  3.549275E-03 -1.482321E-04  3.882827E-19  1.160465E-01  0.000000E+00
  9.343800E-01  3.661047E-03  5.000000E-01  9.438164E-01  3.712043E-03  0.000000E+00  3.353824E-03 -1.539442E-04 -2.286613E-19  1.177257E-01  0.000000E+00
  9.268920E-01  4.021952E-03  5.000000E-01  9.362528E-01  4.076593E-03  0.000000E+00  3.144661E-03 -1.593918E-04 -1.627038E-18  1.191054E-01  0.000000E+00
  9.188750E-01  4.449519E-03  5.000000E-01  9.281548E-01  4.508478E-03  0.000000E+00  2.922340E-03 -1.642738E-04 -1.330279E-18  1.200712E-01  0.000000E+00
  9.103190E-01  4.956883E-03  5.000000E-01  9.195124E-01  5.020966E-03  0.000000E+00  2.688039E-03 -1.683123E-04  7.192952E-19  1.204692E-01  0.000000E+00
  9.012130E-01  5.559904E-03  5.000000E-01  9.103144E-01  5.630077E-03  0.000000E+00  2.443286E-03 -1.711562E-04  1.531153E-18  1.201670E-01  0.000000E+00
  8.915460E-01  6.277751E-03  5.000000E-01  9.005498E-01  6.355174E-03  0.000000E+00  2.189983E-03 -1.723391E-04  2.183507E-18  1.189517E-01  0.000000E+00
  8.813080E-01  7.134155E-03  5.000000E-01  8.902084E-01  7.220227E-03  0.000000E+00  1.930561E-03 -1.713727E-04  1.439889E-18  1.166391E-01  0.000000E+00
  8.704900E-01  8.157785E-03  5.000000E-01  8.792812E-01  8.254195E-03  0.000000E+00  1.667801E-03 -1.677298E-04  1.259295E-18  1.130375E-01  0.000000E+00
  8.704900E-01  8.157785E-03  5.000000E-01  8.792812E-01  8.254195E-03  0.000000E+00  1.667801E-03 -1.677298E-04  1.259295E-18  1.130375E-01  0.000000E+00
  8.590830E-01  9.383677E-03  5.000000E-01  8.677590E-01  9.492468E-03  0.000000E+00  1.406281E-03 -1.608013E-04  5.034508E-19  1.077774E-01  0.000000E+00
  8.470810E-01  1.085467E-02  5.000000E-01  8.556358E-01  1.097831E-02  0.000000E+00  1.152960E-03 -1.503452E-04 -3.939757E-19  1.006126E-01  0.000000E+00
  8.344780E-01  1.262115E-02  5.000000E-01  8.429055E-01  1.276263E-02  0.000000E+00  9.164075E-04 -1.365364E-04  1.425745E-18  9.131656E-02  0.000000E+00
  8.212700E-01  1.473961E-02  5.000000E-01  8.295641E-01  1.490249E-02  0.000000E+00  7.091294E-04 -1.207593E-04  2.982813E-18  7.930982E-02  0.000000E+00
  8.074550E-01  1.726767E-02  5.000000E-01  8.156096E-01  1.745608E-02  0.000000E+00  5.520360E-04 -1.069902E-04  3.224407E-18  6.358793E-02  0.000000E+00
  7.930350E-01  2.025201E-02  5.000000E-01  8.010439E-01  2.047056E-02  0.000000E+00  4.731151E-04 -1.029688E-04  1.452507E-18  4.352877E-02  0.000000E+00
  7.780130E-01  2.370586E-02  5.000000E-01  7.858702E-01  2.395929E-02  0.000000E+00  4.996187E-04 -1.199242E-04  1.517899E-18  1.916961E-02  0.000000E+00
  7.623950E-01  2.760108E-02  5.000000E-01  7.700945E-01  2.789385E-02  0.000000E+00  6.608170E-04 -1.711669E-04  2.434079E-19 -1.085772E-02  0.000000E+00
  7.461930E-01  3.191312E-02  5.000000E-01  7.537289E-01  3.224943E-02  0.000000E+00  1.001082E-03 -2.740644E-04 -1.482287E-18 -4.950962E-02  0.000000E+00
  7.294180E-01  3.659123E-02  5.000000E-01  7.367845E-01  3.697479E-02  0.000000E+00  1.587483E-03 -4.497416E-04  5.885444E-19 -1.007854E-01  0.000000E+00
  7.120900E-01  4.153692E-02  5.000000E-01  7.192815E-01  4.197043E-02  0.000000E+00  2.511161E-03 -7.150308E-04  1.513120E-18 -1.695451E-01  0.000000E+00
  6.942280E-01  4.659441E-02  5.000000E-01  7.012391E-01  4.707899E-02  0.000000E+00  3.858387E-03 -1.061962E-03  3.982188E-19 -2.556523E-01  0.000000E+00
  6.758590E-01  5.154787E-02  5.000000E-01  6.826846E-01  5.208248E-02  0.000000E+00  5.616028E-03 -1.426038E-03 -2.027414E-18 -3.456246E-01  0.000000E+00
  6.570120E-01  5.613647E-02  5.000000E-01  6.636472E-01  5.671742E-02  0.000000E+00  7.579454E-03 -1.698017E-03 -1.470574E-18 -4.199586E-01  0.000000E+00
  6.377220E-01  6.017546E-02  5.000000E-01  6.441624E-01  6.079720E-02  0.000000E+00  9.416207E-03 -1.818195E-03  2.820091E-19 -4.744739E-01  0.000000E+00
  6.180260E-01  6.370915E-02  5.000000E-01  6.242675E-01  6.436658E-02  0.000000E+00  1.086177E-02 -1.810265E-03 -1.322954E-18 -5.133847E-01  0.000000E+00
  5.979670E-01  6.682628E-02  5.000000E-01  6.040059E-01  6.751519E-02  0.000000E+00  1.181405E-02 -1.725686E-03 -2.818218E-18 -5.381755E-01  0.000000E+00
  5.775910E-01  6.962554E-02  5.000000E-01  5.834242E-01  7.034272E-02  0.000000E+00  1.232015E-02 -1.618075E-03 -1.077168E-18 -5.563206E-01  0.000000E+00
  5.569470E-01  7.221184E-02  5.000000E-01  5.625717E-01  7.295514E-02  0.000000E+00  1.256001E-02 -1.531212E-03  1.773468E-19 -5.799232E-01  0.000000E+00
  5.360860E-01  7.468178E-02  5.000000E-01  5.415000E-01  7.545002E-02  0.000000E+00  1.277762E-02 -1.467903E-03 -5.378555E-19 -6.137423E-01  0.000000E+00
  5.150640E-01  7.702444E-02  5.000000E-01  5.202657E-01  7.781634E-02  0.000000E+00  1.315481E-02 -1.397527E-03 -1.977440E-19 -6.540300E-01  0.000000E+00
  4.939370E-01  7.916186E-02  5.000000E-01  4.989253E-01  7.997535E-02  0.000000E+00  1.374391E-02 -1.296231E-03  2.998792E-19 -6.975489E-01  0.000000E+00
  4.727610E-01  8.101872E-02  5.000000E-01  4.775355E-01  8.185096E-02  0.000000E+00  1.449299E-02 -1.147057E-03  9.233305E-19 -7.387278E-01  0.000000E+00
  5.770140E-06 -1.265566E-04  5.000000E-01  5.829537E-06 -1.138113E-04  0.000000E+00 -1.204091E-02  7.593592E-02 -2.505720E-12  6.043295E-01  0.000000E+00
  9.104010E-05 -4.637269E-04  5.000000E-01  9.196065E-05 -4.543867E-04  0.000000E+00 -1.601572E-02  4.500779E-02 -2.330375E-12  9.621392E-01  0.000000E+00
  4.796980E-04 -1.001815E-03  5.000000E-01  4.845436E-04 -9.979094E-04  0.000000E+00 -2.697479E-03  7.453358E-03 -1.638466E-12  1.099213E+00  0.000000E+00
  1.456590E-03 -1.659663E-03  5.000000E-01  1.471301E-03 -1.662401E-03  0.000000E+00  1.582625E-02 -7.774790E-03 -8.155552E-13  9.107265E-01  0.000000E+00
  3.096410E-03 -2.345025E-03  5.000000E-01  3.127682E-03 -2.354684E-03  0.000000E+00  2.425923E-02 -8.768224E-03 -2.481234E-13  7.058158E-01  0.000000E+00
  5.335170E-03 -3.033111E-03  5.000000E-01  5.389052E-03 -3.049719E-03  0.000000E+00  2.548829E-02 -7.038838E-03  5.604104E-16  5.817703E-01  0.000000E+00
  8.129670E-03 -3.714290E-03  5.000000E-01  8.211773E-03 -3.737778E-03  0.000000E+00  2.445378E-02 -5.393577E-03  5.228727E-14  4.895923E-01  0.000000E+00
  1.145600E-02 -4.365820E-03  5.000000E-01  1.157170E-02 -4.395888E-03  0.000000E+00  2.270644E-02 -3.863473E-03  3.464490E-14  4.021748E-01  0.000000E+00
  1.529970E-02 -4.912875E-03  5.000000E-01  1.545421E-02 -4.948467E-03  0.000000E+00  2.021704E-02 -2.272598E-03  1.234999E-14  3.134933E-01  0.000000E+00
  1.962420E-02 -5.249267E-03  5.000000E-01  1.982239E-02 -5.288256E-03  0.000000E+00  1.714040E-02 -9.694860E-04  1.435475E-15  2.492868E-01  0.000000E+00
  2.439810E-02 -5.386055E-03  5.000000E-01  2.464450E-02 -5.426426E-03  0.000000E+00  1.468626E-02 -3.989760E-04 -1.236336E-15  2.477621E-01  0.000000E+00
  2.966100E-02 -5.515839E-03  5.000000E-01  2.996055E-02 -5.557520E-03  0.000000E+00  1.384697E-02 -3.749063E-04 -9.450646E-16  2.690413E-01  0.000000E+00
  3.543640E-02 -5.697061E-03  5.000000E-01  3.579428E-02 -5.740573E-03  0.000000E+00  1.412627E-02 -4.449533E-04 -3.368352E-16  2.525033E-01  0.000000E+00
  4.172970E-02 -5.898371E-03  5.000000E-01  4.215113E-02 -5.943916E-03  0.000000E+00  1.454541E-02 -4.121812E-04 -3.628530E-17  2.084843E-01  0.000000E+00
  4.854440E-02 -6.065056E-03  5.000000E-01  4.903466E-02 -6.112284E-03  0.000000E+00  1.466014E-02 -2.393423E-04  3.562083E-17  1.607866E-01  0.000000E+00
  5.588220E-02 -6.123438E-03  5.000000E-01  5.644656E-02 -6.171255E-03  0.000000E+00  1.448429E-02  1.895868E-05  2.707039E-17  1.211485E-01  0.000000E+00
  6.375220E-02 -6.036829E-03  5.000000E-01  6.439604E-02 -6.083772E-03  0.000000E+00  1.420976E-02  2.790783E-04  8.560911E-18  9.445518E-02  0.000000E+00
  7.217040E-02 -5.796489E-03  5.000000E-01  7.289926E-02 -5.841005E-03  0.000000E+00  1.399778E-02  5.092183E-04 -1.142675E-18  7.701691E-02  0.000000E+00
  8.115500E-02 -5.399051E-03  5.000000E-01  8.197459E-02 -5.439553E-03  0.000000E+00  1.386571E-02  7.281939E-04 -2.460778E-18  6.219011E-02  0.000000E+00
  9.072040E-02 -4.818104E-03  5.000000E-01  9.163660E-02 -4.852739E-03  0.000000E+00  1.371268E-02  9.622123E-04 -4.159716E-19  4.700774E-02  0.000000E+00
  1.008780E-01 -4.008215E-03  5.000000E-01  1.018968E-01 -4.034671E-03  0.000000E+00  1.341949E-02  1.211842E-03  1.705821E-18  3.474427E-02  0.000000E+00
  1.116380E-01 -2.918856E-03  5.000000E-01  1.127654E-01 -2.934310E-03  0.000000E+00  1.289997E-02  1.458221E-03  1.213239E-18  2.952862E-02  0.000000E+00
  1.230100E-01 -1.492022E-03  5.000000E-01  1.242523E-01 -1.493066E-03  0.000000E+00  1.209554E-02  1.672650E-03  4.566639E-20  3.369612E-02  0.000000E+00
  1.350030E-01  3.330107E-04  5.000000E-01  1.363664E-01  3.503972E-04  0.000000E+00  1.098344E-02  1.818741E-03  1.414099E-18  4.922017E-02  0.000000E+00
  1.350030E-01  3.330107E-04  5.000000E-01  1.363664E-01  3.503972E-04  0.000000E+00  1.098344E-02  1.818741E-03  1.414099E-18  4.922017E-02  0.000000E+00
  1.476220E-01  2.613026E-03  5.000000E-01  1.491129E-01  2.653439E-03  0.000000E+00  9.607922E-03  1.863173E-03  3.679932E-18  7.791266E-02  0.000000E+00
  1.608730E-01  5.388764E-03  5.000000E-01  1.624977E-01  5.457209E-03  0.000000E+00  8.101601E-03  1.792917E-03  3.046000E-18  1.205941E-01  0.000000E+00
  1.747560E-01  8.660999E-03  5.000000E-01  1.765209E-01  8.762490E-03  0.000000E+00  6.668165E-03  1.627212E-03  1.376532E-18  1.755053E-01  0.000000E+00
  1.892730E-01  1.235128E-02  5.000000E-01  1.911845E-01  1.249004E-02  0.000000E+00  5.535197E-03  1.412426E-03  3.754993E-19  2.385702E-01  0.000000E+00
  2.044180E-01  1.624190E-02  5.000000E-01  2.064824E-01  1.641996E-02  0.000000E+00  4.908966E-03  1.205706E-03 -7.927005E-19  3.061489E-01  0.000000E+00
  2.201880E-01  1.992827E-02  5.000000E-01  2.224117E-01  2.014355E-02  0.000000E+00  4.869702E-03  1.047522E-03 -1.031223E-18  3.640204E-01  0.000000E+00
  2.365750E-01  2.314488E-02  5.000000E-01  2.389642E-01  2.339264E-02  0.000000E+00  5.286128E-03  9.340659E-04  2.718457E-19  3.947552E-01  0.000000E+00
  2.535710E-01  2.584274E-02  5.000000E-01  2.561318E-01  2.611775E-02  0.000000E+00  5.925343E-03  8.333853E-04  1.064933E-18  4.014838E-01  0.000000E+00
  2.711570E-01  2.803720E-02  5.000000E-01  2.738954E-01  2.833437E-02  0.000000E+00  6.590272E-03  7.307492E-04  7.980760E-19  3.958288E-01  0.000000E+00
  2.893100E-01  2.982307E-02  5.000000E-01  2.922318E-01  3.013828E-02  0.000000E+00  7.120773E-03  6.475656E-04  2.675402E-19  3.831850E-01  0.000000E+00
  3.080020E-01  3.139093E-02  5.000000E-01  3.111125E-01  3.172197E-02  0.000000E+00  7.362686E-03  6.262965E-04 -4.599016E-19  3.653363E-01  0.000000E+00
  3.271950E-01  3.303709E-02  5.000000E-01  3.304994E-01  3.338476E-02  0.000000E+00  7.199237E-03  6.779125E-04 -1.942856E-18  3.454131E-01  0.000000E+00
  3.468470E-01  3.506616E-02  5.000000E-01  3.503498E-01  3.543432E-02  0.000000E+00  6.677781E-03  7.312383E-04 -3.053031E-18  3.405158E-01  0.000000E+00
  3.669110E-01  3.742077E-02  5.000000E-01  3.706165E-01  3.781271E-02  0.000000E+00  6.030160E-03  7.173157E-04 -1.795771E-18  3.610950E-01  0.000000E+00
  3.873360E-01  3.988685E-02  5.000000E-01  3.912477E-01  4.030370E-02  0.000000E+00  5.485548E-03  6.430113E-04 -1.476498E-18  3.929973E-01  0.000000E+00
  4.080670E-01  4.222758E-02  5.000000E-01  4.121881E-01  4.266807E-02  0.000000E+00  5.154871E-03  5.327282E-04 -9.096441E-19  4.223309E-01  0.000000E+00
  4.290470E-01  4.418653E-02  5.000000E-01  4.333800E-01  4.464680E-02  0.000000E+00  5.068002E-03  3.940913E-04  1.910600E-18  4.461058E-01  0.000000E+00
  4.502140E-01  4.550665E-02  5.000000E-01  4.547608E-01  4.598025E-02  0.000000E+00  5.198786E-03  2.354727E-04  2.234021E-18  4.614668E-01  0.000000E+00
  4.715070E-01  4.611459E-02  5.000000E-01  4.762688E-01  4.659432E-02  0.000000E+00  5.449061E-03  7.882463E-05  1.281726E-18  4.632353E-01  0.000000E+00
  4.928620E-01  4.613337E-02  5.000000E-01  4.978395E-01  4.661330E-02  0.000000E+00  5.692402E-03 -5.700928E-05  9.051951E-19  4.550290E-01  0.000000E+00
  5.142140E-01  4.570022E-02  5.000000E-01  5.194071E-01  4.617577E-02  0.000000E+00  5.844957E-03 -1.622899E-04 -1.509777E-19  4.450128E-01  0.000000E+00
  5.355000E-01  4.495281E-02  5.000000E-01  5.409081E-01  4.542082E-02  0.000000E+00  5.875517E-03 -2.314567E-04 -2.513614E-18  4.355478E-01  0.000000E+00
  5.566560E-01  4.402527E-02  5.000000E-01  5.622777E-01  4.448391E-02  0.000000E+00  5.804608E-03 -2.808602E-04 -3.675677E-18  4.285766E-01  0.000000E+00
  4.727610E-01  8.101872E-02  5.000000E-01  4.775355E-01  8.185096E-02  0.000000E+00  1.449299E-02 -1.147057E-03  9.233305E-19 -7.387278E-01  0.000000E+00
  4.515970E-01  8.252491E-02  5.000000E-01  4.561577E-01  8.337236E-02  0.000000E+00  1.526469E-02 -9.343053E-04  2.252381E-18 -7.668287E-01  0.000000E+00
  4.305020E-01  8.362014E-02  5.000000E-01  4.348497E-01  8.447865E-02  0.000000E+00  1.586312E-02 -6.781883E-04  1.660182E-18 -7.769121E-01  0.000000E+00
  4.095340E-01  8.433006E-02  5.000000E-01  4.136699E-01  8.519575E-02  0.000000E+00  1.614008E-02 -4.437391E-04  5.744425E-19 -7.757867E-01  0.000000E+00
  3.887520E-01  8.476978E-02  5.000000E-01  3.926780E-01  8.563991E-02  0.000000E+00  1.608830E-02 -2.780786E-04  5.834504E-19 -7.709572E-01  0.000000E+00
  3.682080E-01  8.504679E-02  5.000000E-01  3.719266E-01  8.591971E-02  0.000000E+00  1.581461E-02 -1.872192E-04  1.435246E-20 -7.696486E-01  0.000000E+00
  3.479570E-01  8.525172E-02  5.000000E-01  3.514711E-01  8.612670E-02  0.000000E+00  1.550362E-02 -1.616996E-04  4.400494E-19 -7.864715E-01  0.000000E+00
  3.280470E-01  8.545797E-02  5.000000E-01  3.313600E-01  8.633504E-02  0.000000E+00  1.542115E-02 -1.659399E-04  4.557028E-19 -8.345903E-01  0.000000E+00
  3.085240E-01  8.567241E-02  5.000000E-01  3.116398E-01  8.655165E-02  0.000000E+00  1.582770E-02 -1.118198E-04 -9.037887E-19 -9.066372E-01  0.000000E+00
  2.894320E-01  8.573840E-02  5.000000E-01  2.923550E-01  8.661831E-02  0.000000E+00  1.679911E-02  8.125468E-05 -2.608776E-18 -9.861629E-01  0.000000E+00
  2.708110E-01  8.550553E-02  5.000000E-01  2.735459E-01  8.638308E-02  0.000000E+00  1.820577E-02  4.378077E-04 -2.900312E-18 -1.065389E+00  0.000000E+00
  2.526960E-01  8.487656E-02  5.000000E-01  2.552480E-01  8.574776E-02  0.000000E+00  1.984696E-02  9.589095E-04 -3.254128E-18 -1.139563E+00  0.000000E+00
  2.351200E-01  8.380641E-02  5.000000E-01  2.374945E-01  8.466680E-02  0.000000E+00  2.152640E-02  1.645252E-03 -4.813800E-18 -1.199358E+00  0.000000E+00
  2.181120E-01  8.226519E-02  5.000000E-01  2.203147E-01  8.311001E-02  0.000000E+00  2.303229E-02  2.489148E-03 -4.061417E-18 -1.229445E+00  0.000000E+00
  2.017010E-01  8.022556E-02  5.000000E-01  2.037380E-01  8.104979E-02  0.000000E+00  2.412788E-02  3.392486E-03 -1.299074E-18 -1.229360E+00  0.000000E+00
  1.859190E-01  7.775636E-02  5.000000E-01  1.877966E-01  7.855565E-02  0.000000E+00  2.471569E-02  4.211301E-03  1.908964E-20 -1.216700E+00  0.000000E+00
  1.707920E-01  7.496905E-02  5.000000E-01  1.725168E-01  7.574020E-02  0.000000E+00  2.493435E-02  4.923698E-03  1.171639E-18 -1.202090E+00  0.000000E+00
  1.563470E-01  7.192636E-02  5.000000E-01  1.579260E-01  7.266678E-02  0.000000E+00  2.499716E-02  5.608802E-03  5.825435E-19 -1.185238E+00  0.000000E+00
  1.426070E-01  6.865512E-02  5.000000E-01  1.440472E-01  6.936249E-02  0.000000E+00  2.504077E-02  6.333066E-03 -1.941881E-18 -1.163318E+00  0.000000E+00
  1.295900E-01  6.517079E-02  5.000000E-01  1.308987E-01  6.584298E-02  0.000000E+00  2.510078E-02  7.117785E-03 -3.067083E-18 -1.133091E+00  0.000000E+00
  1.173060E-01  6.149329E-02  5.000000E-01  1.184907E-01  6.212834E-02  0.000000E+00  2.514019E-02  7.949566E-03 -3.448867E-18 -1.091702E+00  0.000000E+00
  1.057600E-01  5.764883E-02  5.000000E-01  1.068281E-01  5.824506E-02  0.000000E+00  2.509332E-02  8.795256E-03 -6.380911E-19 -1.037380E+00  0.000000E+00
  9.495290E-02  5.367119E-02  5.000000E-01  9.591184E-02  5.422724E-02  0.000000E+00  2.490625E-02  9.610452E-03  2.023525E-18 -9.704206E-01  0.000000E+00
  8.487680E-02  4.960219E-02  5.000000E-01  8.573398E-02  5.011715E-02  0.000000E+00  2.455743E-02  1.035509E-02  5.500946E-18 -8.915011E-01  0.000000E+00
  8.487680E-02  4.960219E-02  5.000000E-01  8.573398E-02  5.011715E-02  0.000000E+00  2.455743E-02  1.035509E-02  5.500946E-18 -8.915011E-01  0.000000E+00
  7.552090E-02  4.548824E-02  5.000000E-01  7.628359E-02  4.596165E-02  0.000000E+00  2.403754E-02  1.099370E-02  9.429347E-18 -7.999179E-01  0.000000E+00
  6.687020E-02  4.137674E-02  5.000000E-01  6.754553E-02  4.180864E-02  0.000000E+00  2.332860E-02  1.146874E-02  9.607708E-18 -6.974371E-01  0.000000E+00
  5.889940E-02  3.732425E-02  5.000000E-01  5.949423E-02  3.771522E-02  0.000000E+00  2.244031E-02  1.171917E-02  1.060574E-17 -5.914368E-01  0.000000E+00
  5.157140E-02  3.339164E-02  5.000000E-01  5.209223E-02  3.374289E-02  0.000000E+00  2.145962E-02  1.175445E-02  1.064038E-17 -4.913644E-01  0.000000E+00
  4.484650E-02  2.962975E-02  5.000000E-01  4.529941E-02  2.994301E-02  0.000000E+00  2.054241E-02  1.169361E-02  1.144914E-17 -4.028448E-01  0.000000E+00
  3.869820E-02  2.606662E-02  5.000000E-01  3.908902E-02  2.634389E-02  0.000000E+00  1.985289E-02  1.171504E-02  4.815377E-18 -3.255839E-01  0.000000E+00
  3.311550E-02  2.271084E-02  5.000000E-01  3.344994E-02  2.295422E-02  0.000000E+00  1.947429E-02  1.194836E-02 -3.444928E-17 -2.534105E-01  0.000000E+00
  2.809130E-02  1.956666E-02  5.000000E-01  2.837500E-02  1.977829E-02  0.000000E+00  1.922675E-02  1.233392E-02 -1.379876E-16 -1.676322E-01  0.000000E+00
  2.362330E-02  1.663471E-02  5.000000E-01  2.386188E-02  1.681673E-02  0.000000E+00  1.859022E-02  1.242715E-02 -3.453261E-16 -5.598486E-02  0.000000E+00
  1.966610E-02  1.393877E-02  5.000000E-01  1.986471E-02  1.409357E-02  0.000000E+00  1.719901E-02  1.163638E-02 -5.329685E-16  5.063474E-02  0.000000E+00
  1.609460E-02  1.153720E-02  5.000000E-01  1.625714E-02  1.166774E-02  0.000000E+00  1.533419E-02  1.006268E-02  4.311507E-17  1.165800E-01  0.000000E+00
  1.282740E-02  9.450677E-03  5.000000E-01  1.295695E-02  9.560144E-03  0.000000E+00  1.369957E-02  8.531236E-03  3.308869E-15  1.398069E-01  0.000000E+00
  9.860990E-03  7.655377E-03  5.000000E-01  9.960578E-03  7.746713E-03  0.000000E+00  1.294147E-02  7.784722E-03  1.176548E-14  1.387278E-01  0.000000E+00
  7.251350E-03  6.096914E-03  5.000000E-01  7.324583E-03  6.172511E-03  0.000000E+00  1.340858E-02  8.136094E-03  2.354684E-14  1.296769E-01  0.000000E+00
  5.038810E-03  4.734867E-03  5.000000E-01  5.089699E-03  4.796708E-03  0.000000E+00  1.536906E-02  9.831910E-03  2.004768E-14  1.129058E-01  0.000000E+00
  3.239710E-03  3.547113E-03  5.000000E-01  3.272429E-03  3.596959E-03  0.000000E+00  1.932873E-02  1.368933E-02 -5.006129E-14  8.811372E-02  0.000000E+00
  1.861880E-03  2.520088E-03  5.000000E-01  1.880684E-03  2.559562E-03  0.000000E+00  2.558505E-02  2.145715E-02 -2.702473E-13  6.917306E-02  0.000000E+00
  9.013910E-04  1.649474E-03  5.000000E-01  9.104954E-04  1.680155E-03  0.000000E+00  3.208065E-02  3.500260E-02 -7.087228E-13  1.041774E-01  0.000000E+00
  3.295630E-04  9.423642E-04  5.000000E-01  3.328924E-04  9.659047E-04  0.000000E+00  3.218673E-02  5.186479E-02 -1.324371E-12  2.567927E-01  0.000000E+00
  7.194000E-05  4.167444E-04  5.000000E-01  7.266765E-05  4.349766E-04  0.000000E+00  2.150916E-02  6.155420E-02 -1.910177E-12  4.701382E-01  0.000000E+00
  4.516100E-06  9.441028E-05  5.000000E-01  4.562833E-06  1.093871E-04  0.000000E+00  7.751285E-03  6.160505E-02 -2.223221E-12  5.457918E-01  0.000000E+00
 -1.112850E-09 -1.388320E-05  5.000000E-01  0.000000E+00  0.000000E+00  0.000000E+00 -2.198032E-03  7.157032E-02 -2.362542E-12  4.814351E-01  0.000000E+00