 Title = "ADflow Slice Data"
Variables =  "CoordinateX"  "CoordinateY"  "CoordinateZ"  "XoC"  "YoC"  "ZoC" "VelocityX" "VelocityY" "VelocityZ" "CoefPressure" "Mach" 
Zone T= "Slice_0001 None Absolute Regular z = 0.50000000"
 Nodes =          192  Elements=          184  ZONETYPE=FELINESEG
 DATAPACKING=POINT
  5.566560E-01  4.646983E-02  5.000000E-01  5.622780E-01  4.674820E-02  0.000000E+00  5.021092E-03 -1.356860E-04 -2.290665E-18  3.377871E-01  0.000000E+00
  5.776220E-01  4.659661E-02  5.000000E-01  5.834557E-01  4.687626E-02  0.000000E+00  4.021589E-03  6.176524E-05 -2.932846E-18  3.455089E-01  0.000000E+00
  5.983370E-01  4.723286E-02  5.000000E-01  6.043799E-01  4.751894E-02  0.000000E+00  3.120132E-03  8.126347E-05 -2.449974E-18  4.016773E-01  0.000000E+00
  6.187480E-01  4.759639E-02  5.000000E-01  6.249971E-01  4.788614E-02  0.000000E+00  2.736250E-03 -1.472739E-05 -2.722295E-18  4.561026E-01  0.000000E+00
  6.388030E-01  4.696349E-02  5.000000E-01  6.452546E-01  4.724685E-02  0.000000E+00  2.979340E-03 -2.331292E-04 -3.166451E-18  4.864940E-01  0.000000E+00
  6.584530E-01  4.468464E-02  5.000000E-01  6.651031E-01  4.494499E-02  0.000000E+00  3.853585E-03 -6.898079E-04 -1.625314E-18  4.973267E-01  0.000000E+00
  6.776550E-01  4.036473E-02  5.000000E-01  6.844990E-01  4.058145E-02  0.000000E+00  5.305611E-03 -1.451747E-03  3.755294E-19  4.793261E-01  0.000000E+00
  6.963720E-01  3.456808E-02  5.000000E-01  7.034050E-01  3.472625E-02  0.000000E+00  7.175500E-03 -2.409795E-03 -1.998550E-19  4.185479E-01  0.000000E+00
  7.145680E-01  2.809624E-02  5.000000E-01  7.217848E-01  2.818905E-02  0.000000E+00  9.271682E-03 -3.364767E-03 -1.063312E-18  3.241051E-01  0.000000E+00
  7.322140E-01  2.159324E-02  5.000000E-01  7.396090E-01  2.162037E-02  0.000000E+00  1.142963E-02 -4.134525E-03 -1.073349E-18  2.102269E-01  0.000000E+00
  7.492860E-01  1.551387E-02  5.000000E-01  7.568535E-01  1.547960E-02  0.000000E+00  1.347875E-02 -4.584339E-03 -2.600356E-18  8.716964E-02  0.000000E+00
  7.657630E-01  1.013799E-02  5.000000E-01  7.734969E-01  1.004943E-02  0.000000E+00  1.522814E-02 -4.643829E-03 -3.287742E-18 -3.469958E-02  0.000000E+00
  7.816300E-01  5.605600E-03  5.000000E-01  7.895241E-01  5.471265E-03  0.000000E+00  1.650258E-02 -4.318972E-03 -3.481781E-18 -1.447275E-01  0.000000E+00
  7.968740E-01  1.960505E-03  5.000000E-01  8.049221E-01  1.789356E-03  0.000000E+00  1.719733E-02 -3.698078E-03 -3.924712E-18 -2.335940E-01  0.000000E+00
  8.114890E-01 -8.362384E-04  5.000000E-01  8.196847E-01 -1.035633E-03  0.000000E+00  1.732553E-02 -2.932712E-03 -3.331045E-18 -2.942416E-01  0.000000E+00
  8.254710E-01 -2.889703E-03  5.000000E-01  8.338079E-01 -3.109836E-03  0.000000E+00  1.701065E-02 -2.170089E-03 -1.410122E-18 -3.260726E-01  0.000000E+00
  8.388180E-01 -4.326745E-03  5.000000E-01  8.472897E-01 -4.561392E-03  0.000000E+00  1.641492E-02 -1.497341E-03 -7.925046E-19 -3.354799E-01  0.000000E+00
  8.515320E-01 -5.268665E-03  5.000000E-01  8.601321E-01 -5.512825E-03  0.000000E+00  1.567405E-02 -9.438212E-04 -1.283897E-18 -3.303526E-01  0.000000E+00
  8.636180E-01 -5.820667E-03  5.000000E-01  8.723402E-01 -6.070402E-03  0.000000E+00  1.487873E-02 -5.060126E-04 -2.074480E-19 -3.165375E-01  0.000000E+00
  8.750810E-01 -6.069694E-03  5.000000E-01  8.839189E-01 -6.321944E-03  0.000000E+00  1.408378E-02 -1.677191E-04  5.035724E-20 -2.976648E-01  0.000000E+00
  8.859290E-01 -6.086464E-03  5.000000E-01  8.948765E-01 -6.338883E-03  0.000000E+00  1.332088E-02  8.956025E-05 -3.535847E-19 -2.759701E-01  0.000000E+00
  8.961710E-01 -5.928196E-03  5.000000E-01  9.052219E-01 -6.179017E-03  0.000000E+00  1.260628E-02  2.830179E-04  4.845681E-19 -2.529991E-01  0.000000E+00
  9.058170E-01 -5.640466E-03  5.000000E-01  9.149653E-01 -5.888381E-03  0.000000E+00  1.194539E-02  4.272676E-04 -3.588386E-19 -2.298097E-01  0.000000E+00
  9.148770E-01 -5.259765E-03  5.000000E-01  9.241168E-01 -5.503835E-03  0.000000E+00  1.133680E-02  5.340014E-04 -1.785017E-18 -2.070674E-01  0.000000E+00
  9.148770E-01 -5.259765E-03  5.000000E-01  9.241168E-01 -5.503835E-03  0.000000E+00  1.133680E-02  5.340014E-04 -1.785017E-18 -2.070674E-01  0.000000E+00
  9.233640E-01 -4.814638E-03  5.000000E-01  9.326896E-01 -5.054212E-03  0.000000E+00  1.077603E-02  6.120055E-04 -2.129935E-18 -1.851030E-01  0.000000E+00
  9.312880E-01 -4.328440E-03  5.000000E-01  9.406936E-01 -4.563104E-03  0.000000E+00  1.025817E-02  6.678092E-04 -6.991251E-19 -1.640752E-01  0.000000E+00
  9.386620E-01 -3.819436E-03  5.000000E-01  9.481421E-01 -4.048960E-03  0.000000E+00  9.778602E-03  7.064501E-04  8.615511E-19 -1.440921E-01  0.000000E+00
  9.454960E-01 -3.302688E-03  5.000000E-01  9.550451E-01 -3.526993E-03  0.000000E+00  9.332738E-03  7.317830E-04 -9.063357E-19 -1.252345E-01  0.000000E+00
  9.518040E-01 -2.789614E-03  5.000000E-01  9.614168E-01 -3.008736E-03  0.000000E+00  8.916574E-03  7.466592E-04 -2.014200E-18 -1.075116E-01  0.000000E+00
  9.575950E-01 -2.290118E-03  5.000000E-01  9.672663E-01 -2.504196E-03  0.000000E+00  8.527854E-03  7.533681E-04 -7.842344E-19 -9.089328E-02  0.000000E+00
  9.628810E-01 -1.811594E-03  5.000000E-01  9.726057E-01 -2.020839E-03  0.000000E+00  8.166034E-03  7.538901E-04  1.356740E-18 -7.539734E-02  0.000000E+00
  9.676710E-01 -1.360396E-03  5.000000E-01  9.774440E-01 -1.565084E-03  0.000000E+00  7.831333E-03  7.498417E-04  2.268970E-18 -6.103621E-02  0.000000E+00
  9.719750E-01 -9.413194E-04  5.000000E-01  9.817915E-01 -1.141775E-03  0.000000E+00  7.522452E-03  7.424244E-04  1.023914E-18 -4.781728E-02  0.000000E+00
  9.758020E-01 -5.582629E-04  5.000000E-01  9.856572E-01 -7.548500E-04  0.000000E+00  7.232391E-03  7.320223E-04  1.352410E-19 -3.565808E-02  0.000000E+00
  9.791590E-01 -2.145366E-04  5.000000E-01  9.890481E-01 -4.076521E-04  0.000000E+00  6.938909E-03  7.171664E-04  2.200426E-18 -2.462718E-02  0.000000E+00
  9.820540E-01  8.755507E-05  5.000000E-01  9.919723E-01 -1.025095E-04  0.000000E+00  6.598878E-03  6.930065E-04  1.205239E-17 -1.468747E-02  0.000000E+00
  9.844930E-01  3.460279E-04  5.000000E-01  9.944359E-01  1.585738E-04  0.000000E+00  6.164114E-03  6.557007E-04  3.128275E-17 -5.137658E-03  0.000000E+00
  9.864820E-01  5.594995E-04  5.000000E-01  9.964450E-01  3.742014E-04  0.000000E+00  5.531637E-03  6.036352E-04  4.274311E-17  2.332273E-03  0.000000E+00
  9.880240E-01  7.265466E-04  5.000000E-01  9.980026E-01  5.429355E-04  0.000000E+00  4.441260E-03  4.835121E-04 -4.255147E-17  7.259737E-04  0.000000E+00
  9.891220E-01  8.462038E-04  5.000000E-01  9.991117E-01  6.638012E-04  0.000000E+00  3.911658E-03  3.359885E-04 -4.310376E-16  1.215466E-02  0.000000E+00
  9.897810E-01  9.184804E-04  5.000000E-01  9.997773E-01  7.368078E-04  0.000000E+00  8.921326E-03  1.671124E-03 -1.240639E-15  8.648206E-02  0.000000E+00
  9.900000E-01  9.425054E-04  5.000000E-01  9.999986E-01  7.610754E-04  0.000000E+00  8.045642E-03  6.194895E-04 -1.590895E-15 -4.795648E-02  0.000000E+00
  9.900000E-01  1.128725E-03  5.000000E-01  9.999986E-01  9.491762E-04  0.000000E+00  7.742597E-04 -9.365199E-03 -9.991372E-16 -1.329154E-01  0.000000E+00
  9.900000E-01  1.314935E-03  5.000000E-01  9.999986E-01  1.137267E-03  0.000000E+00 -4.717755E-04 -1.216008E-02 -2.377696E-16 -1.773400E-02  0.000000E+00
  9.900000E-01  1.501155E-03  5.000000E-01  9.999986E-01  1.325368E-03  0.000000E+00 -1.596678E-04 -3.900433E-03  3.471369E-16 -2.680912E-02  0.000000E+00
  9.900000E-01  1.687375E-03  5.000000E-01  9.999986E-01  1.513468E-03  0.000000E+00  3.434743E-04 -2.688748E-03  9.195564E-16 -6.974122E-02  0.000000E+00
  9.900000E-01  1.873595E-03  5.000000E-01  9.999986E-01  1.701569E-03  0.000000E+00  1.962800E-03 -2.923219E-03  1.173559E-15 -1.377701E-02  0.000000E+00
  9.900000E-01  1.873595E-03  5.000000E-01  9.999986E-01  1.701569E-03  0.000000E+00  1.962800E-03 -2.923219E-03  1.173559E-15 -1.377701E-02  0.000000E+00
  9.897920E-01  1.870296E-03  5.000000E-01  9.997885E-01  1.698236E-03  0.000000E+00  7.121779E-04 -4.060241E-04  7.744316E-16  4.640798E-02  0.000000E+00
  9.891660E-01  1.860207E-03  5.000000E-01  9.991561E-01  1.688046E-03  0.000000E+00 -2.022786E-03  1.080188E-05  2.552219E-16  1.117273E-02  0.000000E+00
  9.881230E-01  1.844340E-03  5.000000E-01  9.981026E-01  1.672018E-03  0.000000E+00 -2.212948E-03 -2.768898E-05  2.632018E-17 -2.252586E-03  0.000000E+00
  9.866580E-01  1.822925E-03  5.000000E-01  9.966228E-01  1.650387E-03  0.000000E+00 -1.983501E-03 -3.058042E-05 -2.348229E-17 -3.530695E-03  0.000000E+00
  9.847700E-01  1.797616E-03  5.000000E-01  9.947157E-01  1.624822E-03  0.000000E+00 -1.979079E-03 -2.557443E-05 -1.710384E-17 -6.090618E-03  0.000000E+00
  9.824550E-01  1.770010E-03  5.000000E-01  9.923774E-01  1.596938E-03  0.000000E+00 -2.082272E-03 -2.270409E-05 -6.790067E-18 -1.046635E-02  0.000000E+00
  9.797070E-01  1.741872E-03  5.000000E-01  9.896016E-01  1.568515E-03  0.000000E+00 -2.199919E-03 -2.004496E-05 -2.894435E-18 -1.522350E-02  0.000000E+00
  9.765220E-01  1.716092E-03  5.000000E-01  9.863844E-01  1.542475E-03  0.000000E+00 -2.318254E-03 -1.589770E-05 -2.222354E-18 -2.034819E-02  0.000000E+00
  9.728930E-01  1.695648E-03  5.000000E-01  9.827188E-01  1.521825E-03  0.000000E+00 -2.437845E-03 -1.020983E-05 -2.892370E-19 -2.611622E-02  0.000000E+00
  9.688130E-01  1.684314E-03  5.000000E-01  9.785976E-01  1.510376E-03  0.000000E+00 -2.557994E-03 -2.822347E-06  7.803018E-19 -3.261487E-02  0.000000E+00
  9.642740E-01  1.686595E-03  5.000000E-01  9.740127E-01  1.512680E-03  0.000000E+00 -2.678326E-03  6.463565E-06  5.710646E-19 -3.981996E-02  0.000000E+00
  9.592670E-01  1.707830E-03  5.000000E-01  9.689552E-01  1.534129E-03  0.000000E+00 -2.798430E-03  1.806297E-05  1.287580E-18 -4.773375E-02  0.000000E+00
  9.537850E-01  1.754963E-03  5.000000E-01  9.634178E-01  1.581739E-03  0.000000E+00 -2.915608E-03  3.227898E-05  5.243400E-19 -5.640940E-02  0.000000E+00
  9.478160E-01  1.835272E-03  5.000000E-01  9.573885E-01  1.662858E-03  0.000000E+00 -3.025062E-03  4.935168E-05 -1.085498E-18 -6.578610E-02  0.000000E+00
  9.413520E-01  1.958606E-03  5.000000E-01  9.508592E-01  1.787438E-03  0.000000E+00 -3.120668E-03  6.954504E-05 -1.487393E-18 -7.579615E-02  0.000000E+00
  9.343800E-01  2.135788E-03  5.000000E-01  9.438168E-01  1.966410E-03  0.000000E+00 -3.194470E-03  9.295809E-05 -8.464734E-19 -8.635221E-02  0.000000E+00
  9.268920E-01  2.380738E-03  5.000000E-01  9.362532E-01  2.213833E-03  0.000000E+00 -3.237402E-03  1.194280E-04 -9.899806E-20 -9.725317E-02  0.000000E+00
  9.188750E-01  2.709710E-03  5.000000E-01  9.281552E-01  2.546128E-03  0.000000E+00 -3.240138E-03  1.484597E-04  3.196250E-19 -1.082853E-01  0.000000E+00
  9.103190E-01  3.142867E-03  5.000000E-01  9.195128E-01  2.983660E-03  0.000000E+00 -3.194123E-03  1.792168E-04  1.166995E-19 -1.191599E-01  0.000000E+00
  9.012130E-01  3.704731E-03  5.000000E-01  9.103148E-01  3.551198E-03  0.000000E+00 -3.093583E-03  2.103509E-04 -9.863462E-20 -1.295323E-01  0.000000E+00
  8.915460E-01  4.425279E-03  5.000000E-01  9.005502E-01  4.279023E-03  0.000000E+00 -2.937660E-03  2.403503E-04 -6.083195E-19 -1.390318E-01  0.000000E+00
  8.813080E-01  5.341911E-03  5.000000E-01  8.902088E-01  5.204913E-03  0.000000E+00 -2.732253E-03  2.677112E-04 -4.214817E-19 -1.472918E-01  0.000000E+00
  8.704900E-01  6.500716E-03  5.000000E-01  8.792816E-01  6.375421E-03  0.000000E+00 -2.490648E-03  2.913303E-04  2.327144E-18 -1.540345E-01  0.000000E+00
  8.704900E-01  6.500716E-03  5.000000E-01  8.792816E-01  6.375421E-03  0.000000E+00 -2.490648E-03  2.913303E-04  2.327144E-18 -1.540345E-01  0.000000E+00
  8.590830E-01  7.959153E-03  5.000000E-01  8.677593E-01  7.848588E-03  0.000000E+00 -2.232140E-03  3.113353E-04  3.431835E-18 -1.591640E-01  0.000000E+00
  8.470810E-01  9.789087E-03  5.000000E-01  8.556361E-01  9.697004E-03  0.000000E+00 -1.980230E-03  3.291112E-04  4.145736E-18 -1.626101E-01  0.000000E+00
  8.344780E-01  1.207851E-02  5.000000E-01  8.429059E-01  1.200955E-02  0.000000E+00 -1.758252E-03  3.478677E-04  3.458029E-18 -1.646492E-01  0.000000E+00
  8.212700E-01  1.493214E-02  5.000000E-01  8.295645E-01  1.489200E-02  0.000000E+00 -1.583542E-03  3.722442E-04  2.641038E-18 -1.657391E-01  0.000000E+00
  8.074550E-01  1.846787E-02  5.000000E-01  8.156099E-01  1.846344E-02  0.000000E+00 -1.466087E-03  4.070808E-04  1.733942E-18 -1.659622E-01  0.000000E+00
  7.930350E-01  2.280351E-02  5.000000E-01  8.010443E-01  2.284287E-02  0.000000E+00 -1.407629E-03  4.558596E-04  5.206641E-19 -1.653832E-01  0.000000E+00
  7.780130E-01  2.802743E-02  5.000000E-01  7.858706E-01  2.811955E-02  0.000000E+00 -1.397957E-03  5.174680E-04  1.251782E-18 -1.642892E-01  0.000000E+00
  7.623950E-01  3.415662E-02  5.000000E-01  7.700948E-01  3.431063E-02  0.000000E+00 -1.419787E-03  5.856786E-04  8.572433E-19 -1.618816E-01  0.000000E+00
  7.461930E-01  4.111932E-02  5.000000E-01  7.537292E-01  4.134366E-02  0.000000E+00 -1.458062E-03  6.480683E-04 -2.795875E-18 -1.572067E-01  0.000000E+00
  7.294180E-01  4.873527E-02  5.000000E-01  7.367848E-01  4.903653E-02  0.000000E+00 -1.450595E-03  6.609096E-04 -8.337806E-18 -1.609272E-01  0.000000E+00
  7.120900E-01  5.667333E-02  5.000000E-01  7.192818E-01  5.705475E-02  0.000000E+00 -1.136205E-03  4.998578E-04 -6.581163E-18 -2.078836E-01  0.000000E+00
  6.942280E-01  6.441919E-02  5.000000E-01  7.012394E-01  6.487885E-02  0.000000E+00  1.799128E-05  1.020561E-05  1.257715E-18 -3.287916E-01  0.000000E+00
  6.758590E-01  7.126418E-02  5.000000E-01  6.826849E-01  7.179297E-02  0.000000E+00  2.444935E-03 -6.946979E-04  6.882015E-18 -4.824948E-01  0.000000E+00
  6.570120E-01  7.634684E-02  5.000000E-01  6.636475E-01  7.692696E-02  0.000000E+00  5.712020E-03 -1.067088E-03  6.892059E-18 -5.633812E-01  0.000000E+00
  6.377220E-01  7.915108E-02  5.000000E-01  6.441627E-01  7.975952E-02  0.000000E+00  8.400055E-03 -7.888179E-04  4.426370E-18 -5.371704E-01  0.000000E+00
  6.180260E-01  8.019884E-02  5.000000E-01  6.242678E-01  8.081786E-02  0.000000E+00  9.244344E-03 -2.686170E-04  3.616121E-18 -4.521931E-01  0.000000E+00
  5.979670E-01  8.028253E-02  5.000000E-01  6.040062E-01  8.090240E-02  0.000000E+00  8.044213E-03 -2.659136E-05  3.042252E-18 -3.549119E-01  0.000000E+00
  5.775910E-01  8.031802E-02  5.000000E-01  5.834244E-01  8.093824E-02  0.000000E+00  5.487023E-03 -1.082200E-04  4.879781E-18 -2.905586E-01  0.000000E+00
  5.569470E-01  8.132921E-02  5.000000E-01  5.625719E-01  8.195965E-02  0.000000E+00  2.656493E-03 -1.904539E-04  7.240421E-18 -2.932853E-01  0.000000E+00
  5.360860E-01  8.431703E-02  5.000000E-01  5.415002E-01  8.497764E-02  0.000000E+00  5.797507E-04 -7.328561E-05  3.375602E-19 -3.651699E-01  0.000000E+00
  5.150640E-01  8.907639E-02  5.000000E-01  5.202659E-01  8.978507E-02  0.000000E+00  5.140747E-05 -2.923698E-05 -1.281680E-17 -5.242018E-01  0.000000E+00
  4.939370E-01  9.455408E-02  5.000000E-01  4.989255E-01  9.531809E-02  0.000000E+00  1.955004E-03 -4.931511E-04 -1.477143E-17 -8.174447E-01  0.000000E+00
  4.727610E-01  9.962478E-02  5.000000E-01  4.775357E-01  1.004400E-01  0.000000E+00  7.252276E-03 -1.328628E-03  8.226647E-18 -1.196338E+00  0.000000E+00
  5.770140E-06  7.843642E-05  5.000000E-01  5.829540E-06 -1.117202E-04  0.000000E+00  1.399261E-02 -8.687114E-02 -5.996199E-13  5.342013E-01  0.000000E+00
  9.104010E-05 -2.383814E-04  5.000000E-01  9.196069E-05 -4.317378E-04  0.000000E+00  4.700166E-02 -8.493858E-02 -5.506616E-13  3.760671E-01  0.000000E+00
  4.796980E-04 -6.895536E-04  5.000000E-01  4.845439E-04 -8.874667E-04  0.000000E+00  6.841238E-02 -5.527374E-02 -3.790721E-13 -2.186969E-01  0.000000E+00
  1.456590E-03 -1.127442E-03  5.000000E-01  1.471302E-03 -1.329778E-03  0.000000E+00  5.426027E-02 -1.945882E-02 -1.855560E-13 -5.777091E-01  0.000000E+00
  3.096410E-03 -1.433913E-03  5.000000E-01  3.127683E-03 -1.639343E-03  0.000000E+00  3.095277E-02 -4.491564E-03 -5.818823E-14 -4.977305E-01  0.000000E+00
  5.335170E-03 -1.589812E-03  5.000000E-01  5.389054E-03 -1.796817E-03  0.000000E+00  1.847262E-02 -7.156732E-04 -4.132289E-15 -3.280116E-01  0.000000E+00
  8.129670E-03 -1.590988E-03  5.000000E-01  8.211777E-03 -1.798005E-03  0.000000E+00  1.385008E-02  3.289232E-04  7.895481E-15 -2.311941E-01  0.000000E+00
  1.145600E-02 -1.421547E-03  5.000000E-01  1.157170E-02 -1.626852E-03  0.000000E+00  1.150012E-02  8.631725E-04  5.634928E-15 -1.922744E-01  0.000000E+00
  1.529970E-02 -1.021520E-03  5.000000E-01  1.545422E-02 -1.222786E-03  0.000000E+00  9.018912E-03  1.159651E-03  2.067926E-15 -1.673254E-01  0.000000E+00
  1.962420E-02 -3.163415E-04  5.000000E-01  1.982240E-02 -5.104853E-04  0.000000E+00  6.498527E-03  1.155910E-03  3.056349E-16 -1.146326E-01  0.000000E+00
  2.439810E-02  6.588583E-04  5.000000E-01  2.464451E-02  4.745636E-04  0.000000E+00  5.132774E-03  1.046784E-03 -1.417988E-16 -1.436079E-02  0.000000E+00
  2.966100E-02  1.729306E-03  5.000000E-01  2.996056E-02  1.555822E-03  0.000000E+00  5.440644E-03  1.086988E-03 -1.226954E-16  8.447817E-02  0.000000E+00
  3.543640E-02  2.839071E-03  5.000000E-01  3.579429E-02  2.676795E-03  0.000000E+00  6.576097E-03  1.240505E-03 -4.637077E-17  1.337907E-01  0.000000E+00
  4.172970E-02  4.003297E-03  5.000000E-01  4.215115E-02  3.852779E-03  0.000000E+00  7.505825E-03  1.378837E-03 -9.654456E-18  1.516871E-01  0.000000E+00
  4.854440E-02  5.251412E-03  5.000000E-01  4.903468E-02  5.113501E-03  0.000000E+00  7.885441E-03  1.457619E-03 -2.531942E-18  1.644463E-01  0.000000E+00
  5.588220E-02  6.622551E-03  5.000000E-01  5.644659E-02  6.498487E-03  0.000000E+00  7.843537E-03  1.478818E-03 -1.967454E-18  1.820100E-01  0.000000E+00
  6.375220E-02  8.121694E-03  5.000000E-01  6.439607E-02  8.012771E-03  0.000000E+00  7.621269E-03  1.452832E-03 -1.698270E-18  2.059115E-01  0.000000E+00
  7.217040E-02  9.727846E-03  5.000000E-01  7.289929E-02  9.635144E-03  0.000000E+00  7.389566E-03  1.397759E-03 -1.816674E-18  2.323185E-01  0.000000E+00
  8.115500E-02  1.141090E-02  5.000000E-01  8.197463E-02  1.133519E-02  0.000000E+00  7.200088E-03  1.330470E-03  5.523197E-19  2.567244E-01  0.000000E+00
  9.072040E-02  1.315194E-02  5.000000E-01  9.163664E-02  1.309382E-02  0.000000E+00  7.028149E-03  1.258050E-03  7.932445E-20  2.773949E-01  0.000000E+00
  1.008780E-01  1.493868E-02  5.000000E-01  1.018968E-01  1.489861E-02  0.000000E+00  6.842488E-03  1.179015E-03 -2.597079E-18  2.959574E-01  0.000000E+00
  1.116380E-01  1.675350E-02  5.000000E-01  1.127655E-01  1.673175E-02  0.000000E+00  6.635602E-03  1.091317E-03 -2.447806E-18  3.139063E-01  0.000000E+00
  1.230100E-01  1.857452E-02  5.000000E-01  1.242523E-01  1.857116E-02  0.000000E+00  6.414986E-03  9.948620E-04 -7.732853E-19  3.312856E-01  0.000000E+00
  1.350030E-01  2.037169E-02  5.000000E-01  1.363665E-01  2.038648E-02  0.000000E+00  6.198471E-03  8.903486E-04 -7.535421E-19  3.478281E-01  0.000000E+00
  1.350030E-01  2.037169E-02  5.000000E-01  1.363665E-01  2.038648E-02  0.000000E+00  6.198471E-03  8.903486E-04 -7.535421E-19  3.478281E-01  0.000000E+00
  1.476220E-01  2.210330E-02  5.000000E-01  1.491129E-01  2.213559E-02  0.000000E+00  6.022582E-03  7.793748E-04 -1.642564E-18  3.632320E-01  0.000000E+00
  1.608730E-01  2.371243E-02  5.000000E-01  1.624977E-01  2.376097E-02  0.000000E+00  5.951365E-03  6.633474E-04 -2.773533E-18  3.769063E-01  0.000000E+00
  1.747560E-01  2.512192E-02  5.000000E-01  1.765210E-01  2.518469E-02  0.000000E+00  6.077307E-03  5.389335E-04 -2.936237E-18  3.874933E-01  0.000000E+00
  1.892730E-01  2.623009E-02  5.000000E-01  1.911846E-01  2.630406E-02  0.000000E+00  6.511265E-03  3.893613E-04 -5.245890E-19  3.926428E-01  0.000000E+00
  2.044180E-01  2.690987E-02  5.000000E-01  2.064825E-01  2.699070E-02  0.000000E+00  7.363340E-03  1.791716E-04 -7.040567E-19  3.901253E-01  0.000000E+00
  2.201880E-01  2.701519E-02  5.000000E-01  2.224118E-01  2.709708E-02  0.000000E+00  8.682626E-03 -1.188097E-04 -1.410435E-18  3.740572E-01  0.000000E+00
  2.365750E-01  2.650908E-02  5.000000E-01  2.389643E-01  2.658586E-02  0.000000E+00  1.036833E-02 -4.784602E-04  7.369848E-19  3.361520E-01  0.000000E+00
  2.535710E-01  2.550436E-02  5.000000E-01  2.561320E-01  2.557100E-02  0.000000E+00  1.212495E-02 -7.939297E-04  1.756173E-18  2.745017E-01  0.000000E+00
  2.711570E-01  2.425344E-02  5.000000E-01  2.738956E-01  2.430744E-02  0.000000E+00  1.346781E-02 -8.749885E-04  1.846633E-18  1.946601E-01  0.000000E+00
  2.893100E-01  2.317782E-02  5.000000E-01  2.922319E-01  2.322096E-02  0.000000E+00  1.379727E-02 -5.208900E-04  1.099600E-18  1.084837E-01  0.000000E+00
  3.080020E-01  2.288042E-02  5.000000E-01  3.111127E-01  2.292055E-02  0.000000E+00  1.257976E-02  2.703744E-04 -2.479676E-18  2.879954E-02  0.000000E+00
  3.271950E-01  2.412512E-02  5.000000E-01  3.304995E-01  2.417782E-02  0.000000E+00  9.710500E-03  1.058207E-03 -4.913112E-18 -2.144303E-02  0.000000E+00
  3.468470E-01  2.757086E-02  5.000000E-01  3.503500E-01  2.765837E-02  0.000000E+00  6.014618E-03  1.221101E-03 -3.018727E-18  2.074694E-02  0.000000E+00
  3.669110E-01  3.282448E-02  5.000000E-01  3.706166E-01  3.296504E-02  0.000000E+00  2.831415E-03  7.760728E-04  1.232135E-18  1.620607E-01  0.000000E+00
  3.873360E-01  3.901359E-02  5.000000E-01  3.912479E-01  3.921666E-02  0.000000E+00  9.094081E-04  2.820584E-04  3.977426E-18  3.148729E-01  0.000000E+00
  4.080670E-01  4.515167E-02  5.000000E-01  4.121883E-01  4.541673E-02  0.000000E+00  2.156090E-04  6.129123E-05  1.989097E-18  4.207555E-01  0.000000E+00
  4.290470E-01  5.015561E-02  5.000000E-01  4.333802E-01  5.047121E-02  0.000000E+00  4.650052E-04  6.602009E-05  2.832249E-18  4.830570E-01  0.000000E+00
  4.502140E-01  5.291482E-02  5.000000E-01  4.547610E-01  5.325829E-02  0.000000E+00  1.416093E-03  6.692315E-05  3.381145E-18  5.161672E-01  0.000000E+00
  4.715070E-01  5.321694E-02  5.000000E-01  4.762690E-01  5.356346E-02  0.000000E+00  2.776667E-03 -9.712893E-05  2.431147E-19  5.162975E-01  0.000000E+00
  4.928620E-01  5.184337E-02  5.000000E-01  4.978397E-01  5.217601E-02  0.000000E+00  4.154932E-03 -3.584676E-04  9.706068E-19  4.863506E-01  0.000000E+00
  5.142140E-01  4.966648E-02  5.000000E-01  5.194073E-01  4.997714E-02  0.000000E+00  5.171233E-03 -5.144022E-04  2.990117E-18  4.405635E-01  0.000000E+00
  5.355000E-01  4.758045E-02  5.000000E-01  5.409083E-01  4.787004E-02  0.000000E+00  5.506496E-03 -4.125262E-04  8.558537E-19  3.841810E-01  0.000000E+00
  5.566560E-01  4.646983E-02  5.000000E-01  5.622780E-01  4.674820E-02  0.000000E+00  5.021092E-03 -1.356860E-04 -2.290665E-18  3.377871E-01  0.000000E+00
  4.727610E-01  9.962478E-02  5.000000E-01  4.775357E-01  1.004400E-01  0.000000E+00  7.252276E-03 -1.328628E-03  8.226647E-18 -1.196338E+00  0.000000E+00
  4.515970E-01  1.031332E-01  5.000000E-01  4.561579E-01  1.039839E-01  0.000000E+00  1.555930E-02 -1.258054E-03  3.866779E-17 -1.448985E+00  0.000000E+00
  4.305020E-01  1.039607E-01  5.000000E-01  4.348499E-01  1.048197E-01  0.000000E+00  2.364125E-02  8.839165E-04  3.733499E-17 -1.408397E+00  0.000000E+00
  4.095340E-01  1.019903E-01  5.000000E-01  4.136701E-01  1.028294E-01  0.000000E+00  2.753862E-02  3.795061E-03  1.289180E-17 -1.158641E+00  0.000000E+00
  3.887520E-01  9.823401E-02  5.000000E-01  3.926782E-01  9.903518E-02  0.000000E+00  2.638227E-02  5.245939E-03 -5.422790E-19 -8.511035E-01  0.000000E+00
  3.682080E-01  9.372632E-02  5.000000E-01  3.719267E-01  9.448197E-02  0.000000E+00  2.203638E-02  4.759293E-03 -1.413612E-18 -5.614704E-01  0.000000E+00
  3.479570E-01  8.943591E-02  5.000000E-01  3.514712E-01  9.014823E-02  0.000000E+00  1.664522E-02  3.158342E-03 -1.807064E-18 -3.578053E-01  0.000000E+00
  3.280470E-01  8.624352E-02  5.000000E-01  3.313601E-01  8.692359E-02  0.000000E+00  1.179780E-02  1.505305E-03 -1.662195E-18 -2.842733E-01  0.000000E+00
  3.085240E-01  8.466292E-02  5.000000E-01  3.116400E-01  8.532703E-02  0.000000E+00  8.485648E-03  4.668904E-04 -1.161479E-19 -3.131188E-01  0.000000E+00
  2.894320E-01  8.428671E-02  5.000000E-01  2.923551E-01  8.494702E-02  0.000000E+00  7.072889E-03  2.294108E-05 -4.236022E-19 -3.986876E-01  0.000000E+00
  2.708110E-01  8.455370E-02  5.000000E-01  2.735461E-01  8.521670E-02  0.000000E+00  7.452140E-03 -1.469797E-04 -1.226099E-18 -5.237877E-01  0.000000E+00
  2.526960E-01  8.499264E-02  5.000000E-01  2.552481E-01  8.566008E-02  0.000000E+00  9.306231E-03 -1.782041E-04 -2.042862E-19 -6.731623E-01  0.000000E+00
  2.351200E-01  8.525894E-02  5.000000E-01  2.374946E-01  8.592907E-02  0.000000E+00  1.220374E-02 -1.883921E-05 -9.121997E-19 -8.304124E-01  0.000000E+00
  2.181120E-01  8.510974E-02  5.000000E-01  2.203148E-01  8.577836E-02  0.000000E+00  1.563000E-02  4.466470E-04 -5.214685E-18 -9.756062E-01  0.000000E+00
  2.017010E-01  8.438438E-02  5.000000E-01  2.037381E-01  8.504568E-02  0.000000E+00  1.903590E-02  1.273778E-03 -6.133345E-18 -1.092243E+00  0.000000E+00
  1.859190E-01  8.302740E-02  5.000000E-01  1.877967E-01  8.367500E-02  0.000000E+00  2.196542E-02  2.404266E-03 -2.648976E-18 -1.173055E+00  0.000000E+00
  1.707920E-01  8.105685E-02  5.000000E-01  1.725169E-01  8.168453E-02  0.000000E+00  2.417179E-02  3.715210E-03  1.832395E-18 -1.216006E+00  0.000000E+00
  1.563470E-01  7.852333E-02  5.000000E-01  1.579260E-01  7.912543E-02  0.000000E+00  2.561138E-02  5.083100E-03  2.618780E-18 -1.222235E+00  0.000000E+00
  1.426070E-01  7.549282E-02  5.000000E-01  1.440473E-01  7.606431E-02  0.000000E+00  2.636560E-02  6.409438E-03 -1.048024E-18 -1.195847E+00  0.000000E+00
  1.295900E-01  7.204038E-02  5.000000E-01  1.308988E-01  7.257701E-02  0.000000E+00  2.656607E-02  7.625906E-03 -6.423152E-18 -1.142873E+00  0.000000E+00
  1.173060E-01  6.824605E-02  5.000000E-01  1.184907E-01  6.874436E-02  0.000000E+00  2.634820E-02  8.695973E-03 -6.596190E-18 -1.069470E+00  0.000000E+00
  1.057600E-01  6.418801E-02  5.000000E-01  1.068281E-01  6.464533E-02  0.000000E+00  2.582890E-02  9.608448E-03 -2.252985E-18 -9.809053E-01  0.000000E+00
  9.495290E-02  5.994063E-02  5.000000E-01  9.591188E-02  6.035506E-02  0.000000E+00  2.510343E-02  1.036470E-02  2.357472E-19 -8.819859E-01  0.000000E+00
  8.487680E-02  5.557409E-02  5.000000E-01  8.573402E-02  5.594441E-02  0.000000E+00  2.425040E-02  1.097651E-02  4.661069E-18 -7.759863E-01  0.000000E+00
  8.487680E-02  5.557409E-02  5.000000E-01  8.573402E-02  5.594441E-02  0.000000E+00  2.425040E-02  1.097651E-02  4.661069E-18 -7.759863E-01  0.000000E+00
  7.552090E-02  5.115304E-02  5.000000E-01  7.628363E-02  5.147871E-02  0.000000E+00  2.332131E-02  1.145766E-02  1.057916E-17 -6.636839E-01  0.000000E+00
  6.687020E-02  4.673520E-02  5.000000E-01  6.754556E-02  4.701626E-02  0.000000E+00  2.233551E-02  1.179924E-02  1.314343E-17 -5.466273E-01  0.000000E+00
  5.889940E-02  4.237870E-02  5.000000E-01  5.949426E-02  4.261575E-02  0.000000E+00  2.131463E-02  1.198199E-02  1.061713E-17 -4.297935E-01  0.000000E+00
  5.157140E-02  3.813964E-02  5.000000E-01  5.209225E-02  3.833388E-02  0.000000E+00  2.032229E-02  1.203070E-02  5.973642E-18 -3.192364E-01  0.000000E+00
  4.484650E-02  3.406332E-02  5.000000E-01  4.529943E-02  3.421640E-02  0.000000E+00  1.945937E-02  1.204331E-02  4.049656E-18 -2.180192E-01  0.000000E+00
  3.869820E-02  3.017688E-02  5.000000E-01  3.908904E-02  3.029071E-02  0.000000E+00  1.882265E-02  1.215575E-02 -1.244929E-18 -1.250735E-01  0.000000E+00
  3.311550E-02  2.649274E-02  5.000000E-01  3.344995E-02  2.656935E-02  0.000000E+00  1.845281E-02  1.246747E-02 -1.584433E-17 -3.590193E-02  0.000000E+00
  2.809130E-02  2.301964E-02  5.000000E-01  2.837501E-02  2.306118E-02  0.000000E+00  1.822941E-02  1.294908E-02 -3.795626E-17  6.241260E-02  0.000000E+00
  2.362330E-02  1.976390E-02  5.000000E-01  2.386189E-02  1.977256E-02  0.000000E+00  1.784561E-02  1.330338E-02 -8.592156E-17  1.784927E-01  0.000000E+00
  1.966610E-02  1.674581E-02  5.000000E-01  1.986472E-02  1.672398E-02  0.000000E+00  1.715880E-02  1.312067E-02 -1.774851E-16  2.907006E-01  0.000000E+00
  1.609460E-02  1.400497E-02  5.000000E-01  1.625715E-02  1.395547E-02  0.000000E+00  1.645334E-02  1.247927E-02 -2.267002E-16  3.766468E-01  0.000000E+00
  1.282740E-02  1.155636E-02  5.000000E-01  1.295695E-02  1.148212E-02  0.000000E+00  1.617125E-02  1.197260E-02  1.619501E-16  4.398432E-01  0.000000E+00
  9.860990E-03  9.388114E-03  5.000000E-01  9.960583E-03  9.291981E-03  0.000000E+00  1.654968E-02  1.213824E-02  1.877630E-15  4.966062E-01  0.000000E+00
  7.251350E-03  7.469585E-03  5.000000E-01  7.324586E-03  7.354076E-03  0.000000E+00  1.751818E-02  1.314474E-02  5.722900E-15  5.593105E-01  0.000000E+00
  5.038810E-03  5.779008E-03  5.000000E-01  5.089701E-03  5.646425E-03  0.000000E+00  1.878205E-02  1.488406E-02  9.777303E-15  6.299667E-01  0.000000E+00
  3.239710E-03  4.306899E-03  5.000000E-01  3.272431E-03  4.159448E-03  0.000000E+00  1.964499E-02  1.702200E-02  3.900775E-15  7.139232E-01  0.000000E+00
  1.861880E-03  3.050156E-03  5.000000E-01  1.880685E-03  2.890012E-03  0.000000E+00  1.833908E-02  1.818182E-02 -3.550692E-14  8.223630E-01  0.000000E+00
  9.013910E-04  2.012257E-03  5.000000E-01  9.104958E-04  1.841631E-03  0.000000E+00  1.171323E-02  1.376379E-02 -1.395398E-13  9.598750E-01  0.000000E+00
  3.295630E-04  1.202570E-03  5.000000E-01  3.328926E-04  1.023767E-03  0.000000E+00 -1.390225E-03 -6.282209E-03 -3.170645E-13  1.073684E+00  0.000000E+00
  7.194000E-05  6.306939E-04  5.000000E-01  7.266769E-05  4.461147E-04  0.000000E+00 -1.222811E-02 -4.964709E-02 -5.090110E-13  9.994878E-01  0.000000E+00
  4.516100E-06  2.973952E-04  5.000000E-01  4.562835E-06  1.094499E-04  0.000000E+00 -1.090401E-02 -9.383248E-02 -5.975192E-13  6.746427E-01  0.000000E+00
 -1.112850E-09  1.890396E-04  5.000000E-01  0.000000E+00  0.000000E+00  0.000000E+00 -2.192930E-03 -9.662906E-02 -5.923444E-13  4.489883E-01  0.000000E+00