 Title = "ADflow Slice Data"
Variables =  "CoordinateX"  "CoordinateY"  "CoordinateZ"  "XoC"  "YoC"  "ZoC" "VelocityX" "VelocityY" "VelocityZ" "CoefPressure" "Mach" 
Zone T= "Slice_0001 None Absolute Regular z = 0.50000000"
 Nodes =          192  Elements=          184  ZONETYPE=FELINESEG
 DATAPACKING=POINT
  5.566560E-01  3.029942E-02  5.000000E-01  5.622777E-01  3.041471E-02  0.000000E+00  6.151723E-03  3.986494E-04 -1.257833E-18  2.831205E-01  0.000000E+00
  5.776220E-01  3.172507E-02  5.000000E-01  5.834555E-01  3.185476E-02  0.000000E+00  5.620440E-03  3.732460E-04 -4.691729E-19  3.045792E-01  0.000000E+00
  5.983370E-01  3.307041E-02  5.000000E-01  6.043797E-01  3.321368E-02  0.000000E+00  5.204430E-03  3.082137E-04  1.456096E-19  3.326470E-01  0.000000E+00
  6.187480E-01  3.414923E-02  5.000000E-01  6.249968E-01  3.430340E-02  0.000000E+00  4.995670E-03  2.139676E-04  2.492677E-20  3.574307E-01  0.000000E+00
  6.388030E-01  3.479910E-02  5.000000E-01  6.452544E-01  3.495984E-02  0.000000E+00  5.023641E-03  9.078156E-05  3.040634E-19  3.747413E-01  0.000000E+00
  6.584530E-01  3.488400E-02  5.000000E-01  6.651028E-01  3.504559E-02  0.000000E+00  5.284741E-03 -6.773807E-05  1.363026E-20  3.847449E-01  0.000000E+00
  6.776550E-01  3.432953E-02  5.000000E-01  6.844987E-01  3.448553E-02  0.000000E+00  5.731703E-03 -2.493407E-04 -2.613185E-19  3.839051E-01  0.000000E+00
  6.963720E-01  3.325920E-02  5.000000E-01  7.034048E-01  3.340438E-02  0.000000E+00  6.266898E-03 -4.249523E-04 -3.323954E-19  3.704431E-01  0.000000E+00
  7.145680E-01  3.184854E-02  5.000000E-01  7.217845E-01  3.197948E-02  0.000000E+00  6.794061E-03 -5.736673E-04  2.459101E-19  3.503558E-01  0.000000E+00
  7.322140E-01  3.024732E-02  5.000000E-01  7.396087E-01  3.036209E-02  0.000000E+00  7.256411E-03 -6.865696E-04  4.690379E-19  3.291799E-01  0.000000E+00
  7.492860E-01  2.857047E-02  5.000000E-01  7.568531E-01  2.866831E-02  0.000000E+00  7.628992E-03 -7.620408E-04  3.197374E-20  3.091943E-01  0.000000E+00
  7.657630E-01  2.689829E-02  5.000000E-01  7.734965E-01  2.697923E-02  0.000000E+00  7.905035E-03 -8.037673E-04  2.610751E-19  2.911282E-01  0.000000E+00
  7.816300E-01  2.528154E-02  5.000000E-01  7.895238E-01  2.534616E-02  0.000000E+00  8.095137E-03 -8.240249E-04 -2.111582E-19  2.757213E-01  0.000000E+00
  7.968740E-01  2.373279E-02  5.000000E-01  8.049217E-01  2.378177E-02  0.000000E+00  8.235677E-03 -8.452253E-04  1.724279E-20  2.646060E-01  0.000000E+00
  8.114890E-01  2.221901E-02  5.000000E-01  8.196843E-01  2.225270E-02  0.000000E+00  8.372851E-03 -8.809608E-04  1.020564E-18  2.564880E-01  0.000000E+00
  8.254710E-01  2.072413E-02  5.000000E-01  8.338075E-01  2.074272E-02  0.000000E+00  8.528183E-03 -9.270825E-04  1.372173E-18  2.478553E-01  0.000000E+00
  8.388180E-01  1.924901E-02  5.000000E-01  8.472893E-01  1.925270E-02  0.000000E+00  8.697086E-03 -9.755964E-04 -2.690550E-20  2.378093E-01  0.000000E+00
  8.515320E-01  1.780225E-02  5.000000E-01  8.601317E-01  1.779133E-02  0.000000E+00  8.869798E-03 -1.021444E-03 -1.428504E-18  2.270797E-01  0.000000E+00
  8.636180E-01  1.639438E-02  5.000000E-01  8.723398E-01  1.636924E-02  0.000000E+00  9.040502E-03 -1.062523E-03 -2.148548E-18  2.162614E-01  0.000000E+00
  8.750810E-01  1.503544E-02  5.000000E-01  8.839186E-01  1.499658E-02  0.000000E+00  9.205813E-03 -1.098232E-03 -2.577249E-18  2.055595E-01  0.000000E+00
  8.859290E-01  1.373334E-02  5.000000E-01  8.948761E-01  1.368133E-02  0.000000E+00  9.363381E-03 -1.128702E-03 -2.248343E-18  1.951191E-01  0.000000E+00
  8.961710E-01  1.249358E-02  5.000000E-01  9.052215E-01  1.242905E-02  0.000000E+00  9.512010E-03 -1.154424E-03 -1.308609E-18  1.850454E-01  0.000000E+00
  9.058170E-01  1.131989E-02  5.000000E-01  9.149650E-01  1.124351E-02  0.000000E+00  9.651544E-03 -1.175985E-03 -5.224527E-19  1.753985E-01  0.000000E+00
  9.148770E-01  1.021448E-02  5.000000E-01  9.241165E-01  1.012693E-02  0.000000E+00  9.782342E-03 -1.193898E-03 -3.680962E-19  1.661890E-01  0.000000E+00
  9.148770E-01  1.021448E-02  5.000000E-01  9.241165E-01  1.012693E-02  0.000000E+00  9.782342E-03 -1.193898E-03 -3.680962E-19  1.661890E-01  0.000000E+00
  9.233640E-01  9.178377E-03  5.000000E-01  9.326892E-01  9.080365E-03  0.000000E+00  9.905115E-03 -1.208778E-03  2.894655E-19  1.574365E-01  0.000000E+00
  9.312880E-01  8.211739E-03  5.000000E-01  9.406932E-01  8.103965E-03  0.000000E+00  1.002104E-02 -1.221272E-03  2.156928E-19  1.491588E-01  0.000000E+00
  9.386620E-01  7.313933E-03  5.000000E-01  9.481417E-01  7.197092E-03  0.000000E+00  1.013138E-02 -1.231944E-03 -2.119687E-19  1.413308E-01  0.000000E+00
  9.454960E-01  6.483990E-03  5.000000E-01  9.550447E-01  6.358767E-03  0.000000E+00  1.023699E-02 -1.241167E-03 -2.927022E-19  1.339077E-01  0.000000E+00
  9.518040E-01  5.720444E-03  5.000000E-01  9.614164E-01  5.587510E-03  0.000000E+00  1.033887E-02 -1.249360E-03 -7.831461E-19  1.268881E-01  0.000000E+00
  9.575950E-01  5.021823E-03  5.000000E-01  9.672659E-01  4.881833E-03  0.000000E+00  1.043896E-02 -1.257044E-03 -4.506751E-19  1.202530E-01  0.000000E+00
  9.628810E-01  4.386442E-03  5.000000E-01  9.726053E-01  4.240036E-03  0.000000E+00  1.054094E-02 -1.264821E-03  1.706763E-19  1.139662E-01  0.000000E+00
  9.676710E-01  3.812673E-03  5.000000E-01  9.774436E-01  3.660472E-03  0.000000E+00  1.065127E-02 -1.273632E-03 -6.164699E-19  1.080137E-01  0.000000E+00
  9.719750E-01  3.298900E-03  5.000000E-01  9.817911E-01  3.141511E-03  0.000000E+00  1.077831E-02 -1.284505E-03 -2.207295E-18  1.023821E-01  0.000000E+00
  9.758020E-01  2.843567E-03  5.000000E-01  9.856568E-01  2.681579E-03  0.000000E+00  1.092517E-02 -1.297872E-03 -4.118631E-18  9.707509E-02  0.000000E+00
  9.791590E-01  2.445292E-03  5.000000E-01  9.890477E-01  2.279282E-03  0.000000E+00  1.106983E-02 -1.311388E-03 -4.363198E-18  9.195376E-02  0.000000E+00
  9.820540E-01  2.102774E-03  5.000000E-01  9.919719E-01  1.933304E-03  0.000000E+00  1.114654E-02 -1.318292E-03  5.005859E-18  8.734737E-02  0.000000E+00
  9.844930E-01  1.814901E-03  5.000000E-01  9.944355E-01  1.642524E-03  0.000000E+00  1.103452E-02 -1.301344E-03  3.081555E-17  8.410972E-02  0.000000E+00
  9.864820E-01  1.580684E-03  5.000000E-01  9.964446E-01  1.405942E-03  0.000000E+00  1.043277E-02 -1.216685E-03  5.254121E-17  7.864510E-02  0.000000E+00
  9.880240E-01  1.399364E-03  5.000000E-01  9.980022E-01  1.222791E-03  0.000000E+00  8.872623E-03 -1.051102E-03 -4.083902E-17  6.511292E-02  0.000000E+00
  9.891220E-01  1.270290E-03  5.000000E-01  9.991113E-01  1.092414E-03  0.000000E+00  8.135484E-03 -1.068009E-03 -5.221421E-16  8.216950E-02  0.000000E+00
  9.897810E-01  1.193017E-03  5.000000E-01  9.997769E-01  1.014360E-03  0.000000E+00  1.534993E-02 -6.214714E-04 -1.573306E-15  1.749617E-01  0.000000E+00
  9.900000E-01  1.167299E-03  5.000000E-01  9.999981E-01  9.883828E-04  0.000000E+00  1.288476E-02 -1.627171E-03 -2.043302E-15 -6.152218E-02  0.000000E+00
  9.900000E-01  1.353520E-03  5.000000E-01  9.999981E-01  1.176484E-03  0.000000E+00  1.194995E-03 -1.343416E-02 -1.292293E-15 -2.020151E-01  0.000000E+00
  9.900000E-01  1.539731E-03  5.000000E-01  9.999981E-01  1.364576E-03  0.000000E+00 -7.302318E-04 -1.408171E-02 -3.467677E-16 -2.431305E-02  0.000000E+00
  9.900000E-01  1.725952E-03  5.000000E-01  9.999981E-01  1.552677E-03  0.000000E+00 -4.642168E-04  3.487736E-03  4.378329E-16 -3.344708E-02  0.000000E+00
  9.900000E-01  1.912173E-03  5.000000E-01  9.999981E-01  1.740779E-03  0.000000E+00  8.080948E-04  3.538376E-03  1.603376E-15 -1.565119E-01  0.000000E+00
  9.900000E-01  2.098394E-03  5.000000E-01  9.999981E-01  1.928880E-03  0.000000E+00  8.186694E-03 -4.565915E-03  2.452994E-15 -5.896195E-02  0.000000E+00
  9.900000E-01  2.098394E-03  5.000000E-01  9.999981E-01  1.928880E-03  0.000000E+00  8.186694E-03 -4.565915E-03  2.452994E-15 -5.896195E-02  0.000000E+00
  9.897920E-01  2.141453E-03  5.000000E-01  9.997880E-01  1.972374E-03  0.000000E+00  9.056107E-03 -2.704755E-03  1.756595E-15  8.425739E-02  0.000000E+00
  9.891660E-01  2.270553E-03  5.000000E-01  9.991557E-01  2.102779E-03  0.000000E+00  3.397213E-03 -6.119050E-04  5.702110E-16  1.311815E-02  0.000000E+00
  9.881230E-01  2.485487E-03  5.000000E-01  9.981022E-01  2.319883E-03  0.000000E+00  3.269212E-03 -6.685971E-04  4.808402E-17  7.989792E-04  0.000000E+00
  9.866580E-01  2.785922E-03  5.000000E-01  9.966224E-01  2.623352E-03  0.000000E+00  3.868202E-03 -7.998386E-04 -5.784654E-17  7.453554E-03  0.000000E+00
  9.847700E-01  3.171363E-03  5.000000E-01  9.947153E-01  3.012685E-03  0.000000E+00  4.031143E-03 -8.202741E-04 -3.833739E-17  5.924049E-03  0.000000E+00
  9.824550E-01  3.641199E-03  5.000000E-01  9.923769E-01  3.487267E-03  0.000000E+00  4.079364E-03 -8.239193E-04 -1.287441E-17  9.350952E-04  0.000000E+00
  9.797070E-01  4.194668E-03  5.000000E-01  9.896012E-01  4.046325E-03  0.000000E+00  4.154751E-03 -8.333482E-04 -2.306510E-18 -4.585316E-03  0.000000E+00
  9.765220E-01  4.830882E-03  5.000000E-01  9.863840E-01  4.688964E-03  0.000000E+00  4.269543E-03 -8.487308E-04  2.715555E-19 -1.098007E-02  0.000000E+00
  9.728930E-01  5.548836E-03  5.000000E-01  9.827184E-01  5.414169E-03  0.000000E+00  4.422572E-03 -8.701469E-04 -4.626226E-19 -1.833372E-02  0.000000E+00
  9.688130E-01  6.347383E-03  5.000000E-01  9.785972E-01  6.220780E-03  0.000000E+00  4.607653E-03 -8.963346E-04 -1.392207E-18 -2.646118E-02  0.000000E+00
  9.642740E-01  7.225303E-03  5.000000E-01  9.740123E-01  7.107566E-03  0.000000E+00  4.814797E-03 -9.251247E-04 -7.669068E-19 -3.518411E-02  0.000000E+00
  9.592670E-01  8.181293E-03  5.000000E-01  9.689548E-01  8.073212E-03  0.000000E+00  5.035034E-03 -9.547350E-04 -1.885578E-19 -4.443193E-02  0.000000E+00
  9.537850E-01  9.213987E-03  5.000000E-01  9.634174E-01  9.116335E-03  0.000000E+00  5.261970E-03 -9.838185E-04  4.088712E-19 -5.405573E-02  0.000000E+00
  9.478160E-01  1.032200E-02  5.000000E-01  9.573881E-01  1.023554E-02  0.000000E+00  5.490621E-03 -1.011460E-03  7.360386E-19 -6.395695E-02  0.000000E+00
  9.413520E-01  1.150406E-02  5.000000E-01  9.508588E-01  1.142953E-02  0.000000E+00  5.717245E-03 -1.037119E-03  5.916114E-19 -7.404467E-02  0.000000E+00
  9.343800E-01  1.275904E-02  5.000000E-01  9.438164E-01  1.269719E-02  0.000000E+00  5.938529E-03 -1.060416E-03  2.242894E-19 -8.420664E-02  0.000000E+00
  9.268920E-01  1.408578E-02  5.000000E-01  9.362528E-01  1.403733E-02  0.000000E+00  6.151464E-03 -1.081150E-03 -4.365192E-19 -9.439472E-02  0.000000E+00
  9.188750E-01  1.548379E-02  5.000000E-01  9.281548E-01  1.544946E-02  0.000000E+00  6.353390E-03 -1.099253E-03 -1.299575E-19 -1.045216E-01  0.000000E+00
  9.103190E-01  1.695285E-02  5.000000E-01  9.195124E-01  1.693335E-02  0.000000E+00  6.541688E-03 -1.114844E-03  5.345029E-19 -1.145541E-01  0.000000E+00
  9.012130E-01  1.849343E-02  5.000000E-01  9.103145E-01  1.848949E-02  0.000000E+00  6.714156E-03 -1.128117E-03  6.231929E-19 -1.244680E-01  0.000000E+00
  8.915460E-01  2.010673E-02  5.000000E-01  9.005498E-01  2.011909E-02  0.000000E+00  6.869111E-03 -1.139536E-03  4.226400E-19 -1.342951E-01  0.000000E+00
  8.813080E-01  2.179518E-02  5.000000E-01  8.902084E-01  2.182459E-02  0.000000E+00  7.005662E-03 -1.149796E-03 -5.135564E-20 -1.440909E-01  0.000000E+00
  8.704900E-01  2.356226E-02  5.000000E-01  8.792812E-01  2.360952E-02  0.000000E+00  7.123877E-03 -1.159768E-03 -7.120400E-19 -1.539633E-01  0.000000E+00
  8.704900E-01  2.356226E-02  5.000000E-01  8.792812E-01  2.360952E-02  0.000000E+00  7.123877E-03 -1.159768E-03 -7.120400E-19 -1.539633E-01  0.000000E+00
  8.590830E-01  2.541319E-02  5.000000E-01  8.677590E-01  2.547914E-02  0.000000E+00  7.225662E-03 -1.170780E-03 -3.878221E-19 -1.641629E-01  0.000000E+00
  8.470810E-01  2.735514E-02  5.000000E-01  8.556358E-01  2.744070E-02  0.000000E+00  7.315828E-03 -1.184521E-03  5.451397E-19 -1.750145E-01  0.000000E+00
  8.344780E-01  2.939718E-02  5.000000E-01  8.429055E-01  2.950336E-02  0.000000E+00  7.402475E-03 -1.202859E-03  3.108916E-19 -1.869297E-01  0.000000E+00
  8.212700E-01  3.154959E-02  5.000000E-01  8.295641E-01  3.167751E-02  0.000000E+00  7.498303E-03 -1.227908E-03 -1.204707E-18 -2.005951E-01  0.000000E+00
  8.074550E-01  3.382266E-02  5.000000E-01  8.156096E-01  3.397354E-02  0.000000E+00  7.622973E-03 -1.261978E-03 -2.410904E-18 -2.169910E-01  0.000000E+00
  7.930350E-01  3.622385E-02  5.000000E-01  8.010440E-01  3.639897E-02  0.000000E+00  7.803216E-03 -1.306664E-03 -7.352556E-19 -2.370625E-01  0.000000E+00
  7.780130E-01  3.875269E-02  5.000000E-01  7.858703E-01  3.895335E-02  0.000000E+00  8.067825E-03 -1.361646E-03  1.978016E-18 -2.612260E-01  0.000000E+00
  7.623950E-01  4.139503E-02  5.000000E-01  7.700945E-01  4.162238E-02  0.000000E+00  8.440560E-03 -1.424692E-03  2.932150E-18 -2.895467E-01  0.000000E+00
  7.461930E-01  4.412362E-02  5.000000E-01  7.537289E-01  4.437852E-02  0.000000E+00  8.937162E-03 -1.491233E-03  6.295182E-19 -3.220836E-01  0.000000E+00
  7.294180E-01  4.689772E-02  5.000000E-01  7.367845E-01  4.718064E-02  0.000000E+00  9.565522E-03 -1.552722E-03 -1.369883E-18 -3.588577E-01  0.000000E+00
  7.120900E-01  4.965981E-02  5.000000E-01  7.192815E-01  4.997063E-02  0.000000E+00  1.032315E-02 -1.594558E-03  1.499268E-20 -3.991138E-01  0.000000E+00
  6.942280E-01  5.233504E-02  5.000000E-01  7.012391E-01  5.267287E-02  0.000000E+00  1.118218E-02 -1.594845E-03 -6.700983E-19 -4.390127E-01  0.000000E+00
  6.758590E-01  5.483402E-02  5.000000E-01  6.826846E-01  5.519709E-02  0.000000E+00  1.205989E-02 -1.527745E-03 -1.638322E-18 -4.698495E-01  0.000000E+00
  6.570120E-01  5.706142E-02  5.000000E-01  6.636473E-01  5.744699E-02  0.000000E+00  1.280831E-02 -1.386435E-03 -1.299372E-18 -4.838262E-01  0.000000E+00
  6.377220E-01  5.896857E-02  5.000000E-01  6.441624E-01  5.937340E-02  0.000000E+00  1.327827E-02 -1.210851E-03 -2.005476E-18 -4.833460E-01  0.000000E+00
  6.180260E-01  6.061596E-02  5.000000E-01  6.242675E-01  6.103742E-02  0.000000E+00  1.341646E-02 -1.052611E-03 -1.552313E-18 -4.743168E-01  0.000000E+00
  5.979670E-01  6.208682E-02  5.000000E-01  6.040059E-01  6.252314E-02  0.000000E+00  1.326994E-02 -9.370247E-04 -8.536843E-19 -4.603127E-01  0.000000E+00
  5.775910E-01  6.347010E-02  5.000000E-01  5.834242E-01  6.392038E-02  0.000000E+00  1.294212E-02 -8.749775E-04 -8.575459E-19 -4.479892E-01  0.000000E+00
  5.569470E-01  6.485703E-02  5.000000E-01  5.625717E-01  6.532132E-02  0.000000E+00  1.257921E-02 -8.666895E-04  1.247470E-19 -4.461337E-01  0.000000E+00
  5.360860E-01  6.632809E-02  5.000000E-01  5.415000E-01  6.680724E-02  0.000000E+00  1.233828E-02 -8.875130E-04  1.848214E-18 -4.570754E-01  0.000000E+00
  5.150640E-01  6.787075E-02  5.000000E-01  5.202657E-01  6.836548E-02  0.000000E+00  1.231727E-02 -9.020287E-04  9.125802E-19 -4.765841E-01  0.000000E+00
  4.939370E-01  6.941429E-02  5.000000E-01  4.989253E-01  6.992460E-02  0.000000E+00  1.252353E-02 -8.936656E-04 -4.279226E-20 -5.016743E-01  0.000000E+00
  4.727610E-01  7.088865E-02  5.000000E-01  4.775355E-01  7.141385E-02  0.000000E+00  1.290292E-02 -8.559121E-04  1.095793E-18 -5.285180E-01  0.000000E+00
  5.770140E-06  7.819165E-05  5.000000E-01  5.829537E-06 -1.117241E-04  0.000000E+00  1.457346E-02 -9.109336E-02 -2.227768E-13  4.889789E-01  0.000000E+00
  9.104010E-05 -2.386734E-04  5.000000E-01  9.196065E-05 -4.317892E-04  0.000000E+00  4.788606E-02 -8.721862E-02 -2.034590E-13  3.223956E-01  0.000000E+00
  4.796980E-04 -6.901032E-04  5.000000E-01  4.845437E-04 -8.877781E-04  0.000000E+00  6.819636E-02 -5.555400E-02 -1.396872E-13 -2.733290E-01  0.000000E+00
  1.456590E-03 -1.129003E-03  5.000000E-01  1.471301E-03 -1.331110E-03  0.000000E+00  5.230233E-02 -1.900016E-02 -6.817320E-14 -6.111500E-01  0.000000E+00
  3.096410E-03 -1.438397E-03  5.000000E-01  3.127682E-03 -1.643629E-03  0.000000E+00  2.813086E-02 -4.193550E-03 -2.111111E-14 -5.043947E-01  0.000000E+00
  5.335170E-03 -1.600893E-03  5.000000E-01  5.389052E-03 -1.807766E-03  0.000000E+00  1.561363E-02 -6.658808E-04 -1.250277E-15 -3.151000E-01  0.000000E+00
  8.129670E-03 -1.614741E-03  5.000000E-01  8.211774E-03 -1.821753E-03  0.000000E+00  1.125930E-02  2.064124E-04  3.060718E-15 -2.054098E-01  0.000000E+00
  1.145600E-02 -1.467085E-03  5.000000E-01  1.157170E-02 -1.672606E-03  0.000000E+00  9.244385E-03  6.220348E-04  2.135621E-15 -1.569214E-01  0.000000E+00
  1.529970E-02 -1.101516E-03  5.000000E-01  1.545421E-02 -1.303346E-03  0.000000E+00  7.112620E-03  8.385738E-04  7.797384E-16 -1.240971E-01  0.000000E+00
  1.962420E-02 -4.469681E-04  5.000000E-01  1.982239E-02 -6.421875E-04  0.000000E+00  4.915058E-03  8.055109E-04  1.194993E-16 -6.628704E-02  0.000000E+00
  2.439810E-02  4.577191E-04  5.000000E-01  2.464450E-02  2.716363E-04  0.000000E+00  3.775745E-03  7.080008E-04 -5.044696E-17  3.525882E-02  0.000000E+00
  2.966100E-02  1.431573E-03  5.000000E-01  2.996055E-02  1.255325E-03  0.000000E+00  4.198999E-03  7.534759E-04 -4.577062E-17  1.339971E-01  0.000000E+00
  3.543640E-02  2.411369E-03  5.000000E-01  3.579428E-02  2.245017E-03  0.000000E+00  5.399990E-03  8.827132E-04 -1.690595E-17  1.846813E-01  0.000000E+00
  4.172970E-02  3.404458E-03  5.000000E-01  4.215113E-02  3.248134E-03  0.000000E+00  6.405951E-03  9.846381E-04 -3.808854E-18  2.048433E-01  0.000000E+00
  4.854440E-02  4.431788E-03  5.000000E-01  4.903466E-02  4.285840E-03  0.000000E+00  6.895106E-03  1.031449E-03 -1.000176E-18  2.191887E-01  0.000000E+00
  5.588220E-02  5.523639E-03  5.000000E-01  5.644656E-02  5.388718E-03  0.000000E+00  6.990774E-03  1.030600E-03  2.502134E-19  2.367285E-01  0.000000E+00
  6.375220E-02  6.674722E-03  5.000000E-01  6.439604E-02  6.551425E-03  0.000000E+00  6.922999E-03  9.903360E-04  2.099360E-19  2.588701E-01  0.000000E+00
  7.217040E-02  7.851774E-03  5.000000E-01  7.289926E-02  7.740365E-03  0.000000E+00  6.862101E-03  9.227504E-04 -6.225603E-19  2.820735E-01  0.000000E+00
  8.115500E-02  9.010477E-03  5.000000E-01  8.197460E-02  8.910770E-03  0.000000E+00  6.871054E-03  8.408611E-04 -9.028127E-19  3.019190E-01  0.000000E+00
  9.072040E-02  1.011687E-02  5.000000E-01  9.163660E-02  1.002833E-02  0.000000E+00  6.942539E-03  7.520598E-04 -9.007522E-19  3.163849E-01  0.000000E+00
  1.008780E-01  1.114353E-02  5.000000E-01  1.018968E-01  1.106536E-02  0.000000E+00  7.064758E-03  6.565853E-04 -1.944751E-18  3.266235E-01  0.000000E+00
  1.116380E-01  1.205832E-02  5.000000E-01  1.127654E-01  1.198939E-02  0.000000E+00  7.250510E-03  5.524340E-04 -2.947183E-18  3.336360E-01  0.000000E+00
  1.230100E-01  1.282749E-02  5.000000E-01  1.242523E-01  1.276633E-02  0.000000E+00  7.524487E-03  4.373316E-04 -3.051178E-18  3.369686E-01  0.000000E+00
  1.350030E-01  1.341519E-02  5.000000E-01  1.363664E-01  1.335997E-02  0.000000E+00  7.908350E-03  3.079057E-04 -3.331852E-18  3.358006E-01  0.000000E+00
  1.350030E-01  1.341519E-02  5.000000E-01  1.363664E-01  1.335997E-02  0.000000E+00  7.908350E-03  3.079057E-04 -3.331852E-18  3.358006E-01  0.000000E+00
  1.476220E-01  1.378633E-02  5.000000E-01  1.491129E-01  1.373486E-02  0.000000E+00  8.411604E-03  1.610607E-04 -2.142035E-18  3.290888E-01  0.000000E+00
  1.608730E-01  1.391252E-02  5.000000E-01  1.624977E-01  1.386232E-02  0.000000E+00  9.021283E-03 -1.856545E-06 -3.628849E-19  3.155928E-01  0.000000E+00
  1.747560E-01  1.378384E-02  5.000000E-01  1.765209E-01  1.373233E-02  0.000000E+00  9.696244E-03 -1.669578E-04  6.033628E-19  2.946333E-01  0.000000E+00
  1.892730E-01  1.342651E-02  5.000000E-01  1.911845E-01  1.337140E-02  0.000000E+00  1.036611E-02 -2.979320E-04  3.623258E-19  2.659466E-01  0.000000E+00
  2.044180E-01  1.292998E-02  5.000000E-01  2.064824E-01  1.286985E-02  0.000000E+00  1.093191E-02 -3.446962E-04 -4.455643E-19  2.290212E-01  0.000000E+00
  2.201880E-01  1.245008E-02  5.000000E-01  2.224117E-01  1.238511E-02  0.000000E+00  1.131719E-02 -2.979094E-04 -2.006016E-19  1.900326E-01  0.000000E+00
  2.365750E-01  1.208822E-02  5.000000E-01  2.389642E-01  1.201959E-02  0.000000E+00  1.152732E-02 -1.991487E-04  3.536883E-20  1.593604E-01  0.000000E+00
  2.535710E-01  1.187737E-02  5.000000E-01  2.561318E-01  1.180662E-02  0.000000E+00  1.159581E-02 -7.477572E-05 -2.871367E-19  1.374180E-01  0.000000E+00
  2.711570E-01  1.186686E-02  5.000000E-01  2.738955E-01  1.179600E-02  0.000000E+00  1.150963E-02  7.511485E-05 -1.375684E-20  1.198127E-01  0.000000E+00
  2.893100E-01  1.211602E-02  5.000000E-01  2.922318E-01  1.204768E-02  0.000000E+00  1.122952E-02  2.461945E-04  6.722875E-19  1.072604E-01  0.000000E+00
  3.080020E-01  1.268484E-02  5.000000E-01  3.111126E-01  1.262224E-02  0.000000E+00  1.073582E-02  4.258106E-04  9.373722E-19  1.021765E-01  0.000000E+00
  3.271950E-01  1.363289E-02  5.000000E-01  3.304994E-01  1.357986E-02  0.000000E+00  1.005137E-02  5.900142E-04  1.370053E-19  1.062156E-01  0.000000E+00
  3.468470E-01  1.498596E-02  5.000000E-01  3.503499E-01  1.494660E-02  0.000000E+00  9.263524E-03  7.032479E-04 -1.260237E-18  1.224802E-01  0.000000E+00
  3.669110E-01  1.666749E-02  5.000000E-01  3.706165E-01  1.664511E-02  0.000000E+00  8.503839E-03  7.484407E-04 -4.758525E-19  1.500595E-01  0.000000E+00
  3.873360E-01  1.855768E-02  5.000000E-01  3.912478E-01  1.855439E-02  0.000000E+00  7.882970E-03  7.381953E-04  1.676297E-18  1.816925E-01  0.000000E+00
  4.080670E-01  2.052082E-02  5.000000E-01  4.121881E-01  2.053735E-02  0.000000E+00  7.460435E-03  6.883057E-04  1.895397E-18  2.115544E-01  0.000000E+00
  4.290470E-01  2.240423E-02  5.000000E-01  4.333800E-01  2.243979E-02  0.000000E+00  7.252700E-03  6.081716E-04  1.284065E-18  2.377753E-01  0.000000E+00
  4.502140E-01  2.405272E-02  5.000000E-01  4.547608E-01  2.410493E-02  0.000000E+00  7.220059E-03  5.162955E-04  1.256452E-19  2.568934E-01  0.000000E+00
  4.715070E-01  2.543425E-02  5.000000E-01  4.762688E-01  2.550041E-02  0.000000E+00  7.250283E-03  4.416420E-04 -1.638812E-18  2.645960E-01  0.000000E+00
  4.928620E-01  2.664772E-02  5.000000E-01  4.978395E-01  2.672614E-02  0.000000E+00  7.211208E-03  3.984824E-04 -9.861915E-19  2.651084E-01  0.000000E+00
  5.142140E-01  2.779753E-02  5.000000E-01  5.194071E-01  2.788756E-02  0.000000E+00  7.020629E-03  3.844178E-04 -3.970669E-19  2.666499E-01  0.000000E+00
  5.355000E-01  2.898365E-02  5.000000E-01  5.409081E-01  2.908566E-02  0.000000E+00  6.655645E-03  3.919578E-04 -1.101418E-18  2.719796E-01  0.000000E+00
  5.566560E-01  3.029942E-02  5.000000E-01  5.622777E-01  3.041471E-02  0.000000E+00  6.151723E-03  3.986494E-04 -1.257833E-18  2.831205E-01  0.000000E+00
  4.727610E-01  7.088865E-02  5.000000E-01  4.775355E-01  7.141385E-02  0.000000E+00  1.290292E-02 -8.559121E-04  1.095793E-18 -5.285180E-01  0.000000E+00
  4.515970E-01  7.222677E-02  5.000000E-01  4.561577E-01  7.276550E-02  0.000000E+00  1.335506E-02 -7.813909E-04 -2.694961E-20 -5.499121E-01  0.000000E+00
  4.305020E-01  7.336797E-02  5.000000E-01  4.348497E-01  7.391822E-02  0.000000E+00  1.374799E-02 -6.800686E-04 -1.808085E-18 -5.623239E-01  0.000000E+00
  4.095340E-01  7.431043E-02  5.000000E-01  4.136699E-01  7.487020E-02  0.000000E+00  1.398113E-02 -5.847904E-04 -1.700693E-18 -5.699844E-01  0.000000E+00
  3.887520E-01  7.511457E-02  5.000000E-01  3.926781E-01  7.568246E-02  0.000000E+00  1.403992E-02 -5.175606E-04 -1.211335E-19 -5.774586E-01  0.000000E+00
  3.682080E-01  7.583471E-02  5.000000E-01  3.719266E-01  7.640987E-02  0.000000E+00  1.397458E-02 -4.786411E-04  1.783959E-18 -5.872721E-01  0.000000E+00
  3.479570E-01  7.651202E-02  5.000000E-01  3.514711E-01  7.709402E-02  0.000000E+00  1.386292E-02 -4.634027E-04  1.948339E-18 -6.034784E-01  0.000000E+00
  3.280470E-01  7.717567E-02  5.000000E-01  3.313600E-01  7.776438E-02  0.000000E+00  1.380054E-02 -4.646720E-04  3.088675E-19 -6.307511E-01  0.000000E+00
  3.085240E-01  7.783821E-02  5.000000E-01  3.116398E-01  7.843360E-02  0.000000E+00  1.388529E-02 -4.651965E-04 -8.734899E-19 -6.704141E-01  0.000000E+00
  2.894320E-01  7.846970E-02  5.000000E-01  2.923550E-01  7.907147E-02  0.000000E+00  1.418431E-02 -4.437640E-04 -1.273082E-18 -7.207468E-01  0.000000E+00
  2.708110E-01  7.902058E-02  5.000000E-01  2.735460E-01  7.962792E-02  0.000000E+00  1.472084E-02 -3.854594E-04 -1.313115E-18 -7.808031E-01  0.000000E+00
  2.526960E-01  7.943611E-02  5.000000E-01  2.552480E-01  8.004764E-02  0.000000E+00  1.550013E-02 -2.775535E-04 -8.577893E-19 -8.524725E-01  0.000000E+00
  2.351200E-01  7.966608E-02  5.000000E-01  2.374945E-01  8.027994E-02  0.000000E+00  1.654895E-02 -9.500128E-05 -1.673049E-18 -9.391387E-01  0.000000E+00
  2.181120E-01  7.964411E-02  5.000000E-01  2.203147E-01  8.025775E-02  0.000000E+00  1.792900E-02  2.111075E-04 -3.790715E-18 -1.041554E+00  0.000000E+00
  2.017010E-01  7.929001E-02  5.000000E-01  2.037380E-01  7.990006E-02  0.000000E+00  1.969197E-02  7.218595E-04 -5.290576E-18 -1.150605E+00  0.000000E+00
  1.859190E-01  7.849653E-02  5.000000E-01  1.877966E-01  7.909858E-02  0.000000E+00  2.177192E-02  1.527992E-03 -2.712230E-18 -1.246694E+00  0.000000E+00
  1.707920E-01  7.716434E-02  5.000000E-01  1.725169E-01  7.775293E-02  0.000000E+00  2.392456E-02  2.653270E-03  1.534478E-19 -1.313411E+00  0.000000E+00
  1.563470E-01  7.526151E-02  5.000000E-01  1.579260E-01  7.583088E-02  0.000000E+00  2.582817E-02  4.029599E-03 -1.680239E-18 -1.342576E+00  0.000000E+00
  1.426070E-01  7.280676E-02  5.000000E-01  1.440472E-01  7.335134E-02  0.000000E+00  2.722128E-02  5.532687E-03 -4.670811E-18 -1.331783E+00  0.000000E+00
  1.295900E-01  6.985443E-02  5.000000E-01  1.308987E-01  7.036919E-02  0.000000E+00  2.797361E-02  7.019358E-03 -7.718368E-18 -1.284821E+00  0.000000E+00
  1.173060E-01  6.648075E-02  5.000000E-01  1.184907E-01  6.696145E-02  0.000000E+00  2.809990E-02  8.374151E-03 -8.029478E-18 -1.208711E+00  0.000000E+00
  1.057600E-01  6.276906E-02  5.000000E-01  1.068281E-01  6.321226E-02  0.000000E+00  2.771238E-02  9.533239E-03 -4.439393E-18 -1.110931E+00  0.000000E+00
  9.495290E-02  5.880286E-02  5.000000E-01  9.591184E-02  5.920601E-02  0.000000E+00  2.695915E-02  1.047608E-02  1.086949E-18 -9.987560E-01  0.000000E+00
  8.487680E-02  5.466283E-02  5.000000E-01  8.573398E-02  5.502417E-02  0.000000E+00  2.598234E-02  1.121428E-02  8.083542E-18 -8.775532E-01  0.000000E+00
  8.487680E-02  5.466283E-02  5.000000E-01  8.573398E-02  5.502417E-02  0.000000E+00  2.598234E-02  1.121428E-02  8.083542E-18 -8.775532E-01  0.000000E+00
  7.552090E-02  5.042359E-02  5.000000E-01  7.628360E-02  5.074212E-02  0.000000E+00  2.488383E-02  1.177192E-02  1.402730E-17 -7.495802E-01  0.000000E+00
  6.687020E-02  4.615163E-02  5.000000E-01  6.754553E-02  4.642702E-02  0.000000E+00  2.371447E-02  1.215111E-02  1.566148E-17 -6.174708E-01  0.000000E+00
  5.889940E-02  4.191273E-02  5.000000E-01  5.949423E-02  4.214531E-02  0.000000E+00  2.251380E-02  1.234167E-02  1.112265E-17 -4.870389E-01  0.000000E+00
  5.157140E-02  3.776932E-02  5.000000E-01  5.209223E-02  3.796006E-02  0.000000E+00  2.135675E-02  1.237820E-02  5.780868E-18 -3.647726E-01  0.000000E+00
  4.484650E-02  3.377138E-02  5.000000E-01  4.529941E-02  3.392174E-02  0.000000E+00  2.035120E-02  1.236963E-02  4.959437E-18 -2.536734E-01  0.000000E+00
  3.869820E-02  2.994915E-02  5.000000E-01  3.908902E-02  3.006091E-02  0.000000E+00  1.959547E-02  1.246039E-02 -2.667330E-18 -1.522892E-01  0.000000E+00
  3.311550E-02  2.631715E-02  5.000000E-01  3.344994E-02  2.639223E-02  0.000000E+00  1.912600E-02  1.275264E-02 -2.114275E-17 -5.571598E-02  0.000000E+00
  2.809130E-02  2.288592E-02  5.000000E-01  2.837500E-02  2.292635E-02  0.000000E+00  1.881399E-02  1.321536E-02 -3.562005E-17  4.928859E-02  0.000000E+00
  2.362330E-02  1.966329E-02  5.000000E-01  2.386188E-02  1.967117E-02  0.000000E+00  1.834482E-02  1.354625E-02 -5.167724E-17  1.713135E-01  0.000000E+00
  1.966610E-02  1.667131E-02  5.000000E-01  1.986471E-02  1.664897E-02  0.000000E+00  1.757702E-02  1.333036E-02 -8.414520E-17  2.882972E-01  0.000000E+00
  1.609460E-02  1.395159E-02  5.000000E-01  1.625714E-02  1.390179E-02  0.000000E+00  1.680281E-02  1.265116E-02 -1.020859E-16  3.779369E-01  0.000000E+00
  1.282740E-02  1.152000E-02  5.000000E-01  1.295695E-02  1.144564E-02  0.000000E+00  1.646468E-02  1.211085E-02  4.652030E-17  4.443756E-01  0.000000E+00
  9.860990E-03  9.364895E-03  5.000000E-01  9.960579E-03  9.268767E-03  0.000000E+00  1.678659E-02  1.224476E-02  7.050872E-16  5.043266E-01  0.000000E+00
  7.251350E-03  7.455755E-03  5.000000E-01  7.324583E-03  7.340346E-03  0.000000E+00  1.767586E-02  1.320604E-02  2.194062E-15  5.701744E-01  0.000000E+00
  5.038810E-03  5.771376E-03  5.000000E-01  5.089699E-03  5.638956E-03  0.000000E+00  1.880911E-02  1.485757E-02  3.793266E-15  6.437376E-01  0.000000E+00
  3.239710E-03  4.303027E-03  5.000000E-01  3.272429E-03  4.155778E-03  0.000000E+00  1.945109E-02  1.681276E-02  1.639601E-15  7.299967E-01  0.000000E+00
  1.861880E-03  3.048342E-03  5.000000E-01  1.880684E-03  2.888422E-03  0.000000E+00  1.779017E-02  1.759225E-02 -1.331208E-14  8.392517E-01  0.000000E+00
  9.013910E-04  2.011435E-03  5.000000E-01  9.104954E-04  1.841044E-03  0.000000E+00  1.068175E-02  1.241291E-02 -5.307045E-14  9.741409E-01  0.000000E+00
  3.295630E-04  1.202159E-03  5.000000E-01  3.328924E-04  1.023595E-03  0.000000E+00 -2.838594E-03 -9.001897E-03 -1.212028E-13  1.078400E+00  0.000000E+00
  7.194000E-05  6.304215E-04  5.000000E-01  7.266766E-05  4.460828E-04  0.000000E+00 -1.360179E-02 -5.425352E-02 -1.947925E-13  9.851099E-01  0.000000E+00
  4.516100E-06  2.971531E-04  5.000000E-01  4.562833E-06  1.094487E-04  0.000000E+00 -1.167657E-02 -9.982605E-02 -2.275042E-13  6.389340E-01  0.000000E+00
 -1.112850E-09  1.887987E-04  5.000000E-01  0.000000E+00  0.000000E+00  0.000000E+00 -2.292262E-03 -1.022681E-01 -2.227134E-13  4.044651E-01  0.000000E+00