 Title = "ADflow Slice Data"
Variables =  "CoordinateX"  "CoordinateY"  "CoordinateZ"  "XoC"  "YoC"  "ZoC" "VelocityX" "VelocityY" "VelocityZ" "CoefPressure" "Mach" 
Zone T= "Slice_0001 None Absolute Regular z = 0.50000000"
 Nodes =          192  Elements=          184  ZONETYPE=FELINESEG
 DATAPACKING=POINT
  5.566560E-01  2.995621E-02  5.000000E-01  5.622776E-01  3.019810E-02  0.000000E+00  7.408207E-03  2.027286E-05 -4.672979E-18  3.018152E-01  0.000000E+00
  5.776220E-01  2.993874E-02  5.000000E-01  5.834553E-01  3.018046E-02  0.000000E+00  7.437145E-03 -3.203139E-05 -1.169011E-18  3.007665E-01  0.000000E+00
  5.983370E-01  2.977777E-02  5.000000E-01  6.043795E-01  3.001786E-02  0.000000E+00  7.474043E-03 -8.302440E-05  5.631361E-18  2.989698E-01  0.000000E+00
  6.187480E-01  2.948326E-02  5.000000E-01  6.249967E-01  2.972038E-02  0.000000E+00  7.516504E-03 -1.324161E-04  1.150924E-17  2.966084E-01  0.000000E+00
  6.388030E-01  2.906642E-02  5.000000E-01  6.452542E-01  2.929932E-02  0.000000E+00  7.562730E-03 -1.802363E-04  1.117021E-17  2.938470E-01  0.000000E+00
  6.584530E-01  2.853867E-02  5.000000E-01  6.651026E-01  2.876625E-02  0.000000E+00  7.611008E-03 -2.264601E-04  6.902065E-18  2.907964E-01  0.000000E+00
  6.776550E-01  2.791194E-02  5.000000E-01  6.844985E-01  2.813319E-02  0.000000E+00  7.658561E-03 -2.706923E-04  2.840118E-18  2.874403E-01  0.000000E+00
  6.963720E-01  2.720000E-02  5.000000E-01  7.034046E-01  2.741405E-02  0.000000E+00  7.701794E-03 -3.128779E-04 -8.262466E-19  2.839133E-01  0.000000E+00
  7.145680E-01  2.641405E-02  5.000000E-01  7.217843E-01  2.662017E-02  0.000000E+00  7.737449E-03 -3.532954E-04 -2.777217E-18  2.803956E-01  0.000000E+00
  7.322140E-01  2.556490E-02  5.000000E-01  7.396085E-01  2.576245E-02  0.000000E+00  7.763168E-03 -3.917667E-04 -2.625523E-18  2.769249E-01  0.000000E+00
  7.492860E-01  2.466358E-02  5.000000E-01  7.568529E-01  2.485202E-02  0.000000E+00  7.779431E-03 -4.278726E-04 -1.536385E-18  2.736231E-01  0.000000E+00
  7.657630E-01  2.372094E-02  5.000000E-01  7.734963E-01  2.389987E-02  0.000000E+00  7.790836E-03 -4.618256E-04 -7.365485E-19  2.703756E-01  0.000000E+00
  7.816300E-01  2.274710E-02  5.000000E-01  7.895236E-01  2.291619E-02  0.000000E+00  7.808275E-03 -4.984614E-04 -1.019849E-18  2.672499E-01  0.000000E+00
  7.968740E-01  2.173768E-02  5.000000E-01  8.049215E-01  2.189657E-02  0.000000E+00  7.855645E-03 -5.489166E-04 -2.341073E-18  2.652400E-01  0.000000E+00
  8.114890E-01  2.066409E-02  5.000000E-01  8.196841E-01  2.081215E-02  0.000000E+00  7.957054E-03 -6.169334E-04 -3.921352E-18  2.631376E-01  0.000000E+00
  8.254710E-01  1.952273E-02  5.000000E-01  8.338073E-01  1.965926E-02  0.000000E+00  8.112060E-03 -6.940993E-04 -3.547522E-18  2.583356E-01  0.000000E+00
  8.388180E-01  1.832875E-02  5.000000E-01  8.472891E-01  1.845321E-02  0.000000E+00  8.300573E-03 -7.713974E-04 -1.522461E-18  2.507375E-01  0.000000E+00
  8.515320E-01  1.710417E-02  5.000000E-01  8.601315E-01  1.721627E-02  0.000000E+00  8.503263E-03 -8.436261E-04 -3.258177E-19  2.415232E-01  0.000000E+00
  8.636180E-01  1.587111E-02  5.000000E-01  8.723396E-01  1.597076E-02  0.000000E+00  8.708536E-03 -9.086624E-04 -8.547693E-20  2.315518E-01  0.000000E+00
  8.750810E-01  1.464911E-02  5.000000E-01  8.839183E-01  1.473642E-02  0.000000E+00  8.909566E-03 -9.659689E-04  1.169870E-18  2.212055E-01  0.000000E+00
  8.859290E-01  1.345373E-02  5.000000E-01  8.948759E-01  1.352896E-02  0.000000E+00  9.102100E-03 -1.015815E-03  2.174222E-18  2.107644E-01  0.000000E+00
  8.961710E-01  1.229659E-02  5.000000E-01  9.052213E-01  1.236014E-02  0.000000E+00  9.284154E-03 -1.058868E-03  1.609989E-18  2.004471E-01  0.000000E+00
  9.058170E-01  1.118633E-02  5.000000E-01  9.149647E-01  1.123867E-02  0.000000E+00  9.455428E-03 -1.095940E-03  9.118224E-19  1.903816E-01  0.000000E+00
  9.148770E-01  1.012905E-02  5.000000E-01  9.241162E-01  1.017071E-02  0.000000E+00  9.616348E-03 -1.127760E-03  6.295152E-19  1.806221E-01  0.000000E+00
  9.148770E-01  1.012905E-02  5.000000E-01  9.241162E-01  1.017071E-02  0.000000E+00  9.616348E-03 -1.127760E-03  6.295152E-19  1.806221E-01  0.000000E+00
  9.233640E-01  9.128912E-03  5.000000E-01  9.326889E-01  9.160473E-03  0.000000E+00  9.767769E-03 -1.155132E-03  8.254097E-19  1.712254E-01  0.000000E+00
  9.312880E-01  8.188590E-03  5.000000E-01  9.406930E-01  8.210654E-03  0.000000E+00  9.911085E-03 -1.178877E-03  5.304801E-19  1.622380E-01  0.000000E+00
  9.386620E-01  7.309476E-03  5.000000E-01  9.481414E-01  7.322663E-03  0.000000E+00  1.004779E-02 -1.199720E-03 -2.478922E-19  1.536536E-01  0.000000E+00
  9.454960E-01  6.492242E-03  5.000000E-01  9.550444E-01  6.497176E-03  0.000000E+00  1.017896E-02 -1.218178E-03 -1.118088E-18  1.454410E-01  0.000000E+00
  9.518040E-01  5.736757E-03  5.000000E-01  9.614161E-01  5.734061E-03  0.000000E+00  1.030579E-02 -1.234791E-03 -5.171244E-18  1.376106E-01  0.000000E+00
  9.575950E-01  5.042630E-03  5.000000E-01  9.672656E-01  5.032924E-03  0.000000E+00  1.043044E-02 -1.250191E-03 -8.653491E-18  1.301510E-01  0.000000E+00
  9.628810E-01  4.409062E-03  5.000000E-01  9.726050E-01  4.392958E-03  0.000000E+00  1.055678E-02 -1.265078E-03  5.382043E-18  1.230326E-01  0.000000E+00
  9.676710E-01  3.835148E-03  5.000000E-01  9.774434E-01  3.813248E-03  0.000000E+00  1.069152E-02 -1.280492E-03  5.394326E-17  1.162470E-01  0.000000E+00
  9.719750E-01  3.319863E-03  5.000000E-01  9.817908E-01  3.292759E-03  0.000000E+00  1.084345E-02 -1.297576E-03  9.412354E-17  1.097867E-01  0.000000E+00
  9.758020E-01  2.862132E-03  5.000000E-01  9.856565E-01  2.830406E-03  0.000000E+00  1.101628E-02 -1.316889E-03 -6.984447E-17  1.036611E-01  0.000000E+00
  9.791590E-01  2.460970E-03  5.000000E-01  9.890474E-01  2.425192E-03  0.000000E+00  1.118851E-02 -1.336171E-03 -5.973093E-16  9.773443E-02  0.000000E+00
  9.820540E-01  2.115390E-03  5.000000E-01  9.919716E-01  2.076122E-03  0.000000E+00  1.129427E-02 -1.348612E-03 -8.509235E-16  9.234476E-02  0.000000E+00
  9.844930E-01  1.824540E-03  5.000000E-01  9.944353E-01  1.782335E-03  0.000000E+00  1.121117E-02 -1.336586E-03  7.013925E-16  8.837367E-02  0.000000E+00
  9.864820E-01  1.587632E-03  5.000000E-01  9.964443E-01  1.543034E-03  0.000000E+00  1.063292E-02 -1.254991E-03  3.583498E-15  8.220989E-02  0.000000E+00
  9.880240E-01  1.404066E-03  5.000000E-01  9.980019E-01  1.357615E-03  0.000000E+00  9.079807E-03 -1.088926E-03  2.470502E-15  6.792607E-02  0.000000E+00
  9.891220E-01  1.273309E-03  5.000000E-01  9.991110E-01  1.225537E-03  0.000000E+00  8.343928E-03 -1.106664E-03 -6.201561E-15  8.458998E-02  0.000000E+00
  9.897810E-01  1.194992E-03  5.000000E-01  9.997767E-01  1.146430E-03  0.000000E+00  1.563789E-02 -6.649364E-04 -1.176156E-14  1.780962E-01  0.000000E+00
  9.900000E-01  1.168923E-03  5.000000E-01  9.999979E-01  1.120097E-03  0.000000E+00  1.309012E-02 -1.661309E-03  3.110805E-15 -6.190448E-02  0.000000E+00
  9.900000E-01  1.355144E-03  5.000000E-01  9.999979E-01  1.308198E-03  0.000000E+00  1.212005E-03 -1.360394E-02  2.098262E-14 -2.045365E-01  0.000000E+00
  9.900000E-01  1.541355E-03  5.000000E-01  9.999979E-01  1.496290E-03  0.000000E+00 -7.382589E-04 -1.429388E-02  2.536662E-14 -2.463041E-02  0.000000E+00
  9.900000E-01  1.727576E-03  5.000000E-01  9.999979E-01  1.684391E-03  0.000000E+00 -4.675730E-04  3.462581E-03  2.080903E-14 -3.389831E-02  0.000000E+00
  9.900000E-01  1.913796E-03  5.000000E-01  9.999979E-01  1.872493E-03  0.000000E+00  8.128663E-04  3.548662E-03  8.663181E-15 -1.578101E-01  0.000000E+00
  9.900000E-01  2.100017E-03  5.000000E-01  9.999979E-01  2.060594E-03  0.000000E+00  8.234222E-03 -4.608079E-03 -5.673616E-16 -5.971503E-02  0.000000E+00
  9.900000E-01  2.100017E-03  5.000000E-01  9.999979E-01  2.060594E-03  0.000000E+00  8.234222E-03 -4.608079E-03 -5.673616E-16 -5.971503E-02  0.000000E+00
  9.897920E-01  2.143405E-03  5.000000E-01  9.997878E-01  2.104420E-03  0.000000E+00  9.101070E-03 -2.732243E-03 -3.469331E-15  8.422282E-02  0.000000E+00
  9.891660E-01  2.273477E-03  5.000000E-01  9.991555E-01  2.235806E-03  0.000000E+00  3.397501E-03 -6.166214E-04 -2.646073E-15  1.255587E-02  0.000000E+00
  9.881230E-01  2.489977E-03  5.000000E-01  9.981019E-01  2.454492E-03  0.000000E+00  3.262919E-03 -6.721224E-04 -2.801407E-16  4.117445E-05  0.000000E+00
  9.866580E-01  2.792497E-03  5.000000E-01  9.966221E-01  2.760067E-03  0.000000E+00  3.867015E-03 -8.049130E-04  8.541202E-16  6.438407E-03  0.000000E+00
  9.847700E-01  3.180428E-03  5.000000E-01  9.947151E-01  3.151916E-03  0.000000E+00  4.040725E-03 -8.272552E-04  5.394814E-16  4.534620E-03  0.000000E+00
  9.824550E-01  3.653014E-03  5.000000E-01  9.923767E-01  3.629274E-03  0.000000E+00  4.103981E-03 -8.334214E-04  4.345414E-17 -8.866295E-04  0.000000E+00
  9.797070E-01  4.209306E-03  5.000000E-01  9.896009E-01  4.191184E-03  0.000000E+00  4.197044E-03 -8.457292E-04 -9.487645E-17 -6.900975E-03  0.000000E+00
  9.765220E-01  4.848190E-03  5.000000E-01  9.863838E-01  4.836520E-03  0.000000E+00  4.331434E-03 -8.641637E-04 -5.410314E-17 -1.385848E-02  0.000000E+00
  9.728930E-01  5.568386E-03  5.000000E-01  9.827181E-01  5.563990E-03  0.000000E+00  4.505826E-03 -8.887146E-04 -1.359229E-17 -2.183844E-02  0.000000E+00
  9.688130E-01  6.368422E-03  5.000000E-01  9.785969E-01  6.372105E-03  0.000000E+00  4.713998E-03 -9.180337E-04 -6.523357E-19 -3.064953E-02  0.000000E+00
  9.642740E-01  7.246692E-03  5.000000E-01  9.740121E-01  7.259245E-03  0.000000E+00  4.945967E-03 -9.498697E-04  5.033108E-19 -4.010699E-02  0.000000E+00
  9.592670E-01  8.201440E-03  5.000000E-01  9.689545E-01  8.223634E-03  0.000000E+00  5.192785E-03 -9.823687E-04 -5.975337E-19 -5.013317E-02  0.000000E+00
  9.537850E-01  9.230765E-03  5.000000E-01  9.634171E-01  9.263354E-03  0.000000E+00  5.448073E-03 -1.014103E-03  4.262432E-19 -6.056871E-02  0.000000E+00
  9.478160E-01  1.033265E-02  5.000000E-01  9.573879E-01  1.037637E-02  0.000000E+00  5.706826E-03 -1.044074E-03  2.389287E-18 -7.130449E-02  0.000000E+00
  9.413520E-01  1.150511E-02  5.000000E-01  9.508586E-01  1.156066E-02  0.000000E+00  5.965270E-03 -1.071653E-03  1.878780E-18 -8.223646E-02  0.000000E+00
  9.343800E-01  1.274612E-02  5.000000E-01  9.438162E-01  1.281421E-02  0.000000E+00  6.220053E-03 -1.096371E-03 -2.927886E-19 -9.323655E-02  0.000000E+00
  9.268920E-01  1.405352E-02  5.000000E-01  9.362526E-01  1.413482E-02  0.000000E+00  6.468129E-03 -1.117935E-03 -2.737649E-19 -1.042389E-01  0.000000E+00
  9.188750E-01  1.542561E-02  5.000000E-01  9.281546E-01  1.552076E-02  0.000000E+00  6.706828E-03 -1.136181E-03  7.476512E-19 -1.151349E-01  0.000000E+00
  9.103190E-01  1.686069E-02  5.000000E-01  9.195122E-01  1.697034E-02  0.000000E+00  6.933539E-03 -1.151136E-03  5.309058E-19 -1.258660E-01  0.000000E+00
  9.012130E-01  1.835751E-02  5.000000E-01  9.103142E-01  1.848227E-02  0.000000E+00  7.146038E-03 -1.162878E-03  3.862423E-19 -1.363711E-01  0.000000E+00
  8.915460E-01  1.991517E-02  5.000000E-01  9.005496E-01  2.005566E-02  0.000000E+00  7.342536E-03 -1.171744E-03 -3.388410E-19 -1.466399E-01  0.000000E+00
  8.813080E-01  2.153353E-02  5.000000E-01  8.902082E-01  2.169037E-02  0.000000E+00  7.521984E-03 -1.178257E-03  2.273084E-19 -1.566817E-01  0.000000E+00
  8.704900E-01  2.321297E-02  5.000000E-01  8.792810E-01  2.338677E-02  0.000000E+00  7.684052E-03 -1.183051E-03  8.696880E-19 -1.665253E-01  0.000000E+00
  8.704900E-01  2.321297E-02  5.000000E-01  8.792810E-01  2.338677E-02  0.000000E+00  7.684052E-03 -1.183051E-03  8.696880E-19 -1.665253E-01  0.000000E+00
  8.590830E-01  2.495488E-02  5.000000E-01  8.677588E-01  2.514627E-02  0.000000E+00  7.829493E-03 -1.187118E-03  4.890338E-19 -1.762936E-01  0.000000E+00
  8.470810E-01  2.676185E-02  5.000000E-01  8.556356E-01  2.697148E-02  0.000000E+00  7.960898E-03 -1.191568E-03  1.300199E-19 -1.861791E-01  0.000000E+00
  8.344780E-01  2.863739E-02  5.000000E-01  8.429053E-01  2.886597E-02  0.000000E+00  8.082831E-03 -1.197447E-03  9.035763E-20 -1.964109E-01  0.000000E+00
  8.212700E-01  3.058541E-02  5.000000E-01  8.295639E-01  3.083366E-02  0.000000E+00  8.202223E-03 -1.205707E-03  5.918844E-19 -2.073881E-01  0.000000E+00
  8.074550E-01  3.260929E-02  5.000000E-01  8.156094E-01  3.287797E-02  0.000000E+00  8.329208E-03 -1.216915E-03  4.738543E-19 -2.196275E-01  0.000000E+00
  7.930350E-01  3.471011E-02  5.000000E-01  8.010438E-01  3.500001E-02  0.000000E+00  8.474963E-03 -1.230422E-03 -4.441753E-19 -2.332858E-01  0.000000E+00
  7.780130E-01  3.688366E-02  5.000000E-01  7.858700E-01  3.719551E-02  0.000000E+00  8.645744E-03 -1.244249E-03  2.586256E-19 -2.479438E-01  0.000000E+00
  7.623950E-01  3.911952E-02  5.000000E-01  7.700943E-01  3.945395E-02  0.000000E+00  8.840528E-03 -1.257171E-03  1.077434E-18 -2.634174E-01  0.000000E+00
  7.461930E-01  4.140827E-02  5.000000E-01  7.537287E-01  4.176582E-02  0.000000E+00  9.055746E-03 -1.268894E-03  5.246149E-19 -2.797860E-01  0.000000E+00
  7.294180E-01  4.374001E-02  5.000000E-01  7.367843E-01  4.412110E-02  0.000000E+00  9.288075E-03 -1.278805E-03  1.433950E-18 -2.969296E-01  0.000000E+00
  7.120900E-01  4.610345E-02  5.000000E-01  7.192813E-01  4.650841E-02  0.000000E+00  9.533966E-03 -1.285930E-03  2.930903E-18 -3.147037E-01  0.000000E+00
  6.942280E-01  4.848623E-02  5.000000E-01  7.012389E-01  4.891525E-02  0.000000E+00  9.789926E-03 -1.289476E-03  7.948903E-19 -3.329859E-01  0.000000E+00
  6.758590E-01  5.087551E-02  5.000000E-01  6.826844E-01  5.132866E-02  0.000000E+00  1.005281E-02 -1.289081E-03 -4.002259E-18 -3.516723E-01  0.000000E+00
  6.570120E-01  5.325847E-02  5.000000E-01  6.636471E-01  5.373569E-02  0.000000E+00  1.032010E-02 -1.284630E-03 -9.742052E-18 -3.706999E-01  0.000000E+00
  6.377220E-01  5.562280E-02  5.000000E-01  6.441623E-01  5.612389E-02  0.000000E+00  1.059033E-02 -1.276343E-03 -1.540899E-17 -3.901190E-01  0.000000E+00
  6.180260E-01  5.795720E-02  5.000000E-01  6.242674E-01  5.848187E-02  0.000000E+00  1.086380E-02 -1.264445E-03 -1.752154E-17 -4.100466E-01  0.000000E+00
  5.979670E-01  6.025010E-02  5.000000E-01  6.040058E-01  6.079793E-02  0.000000E+00  1.114272E-02 -1.248935E-03 -1.563195E-17 -4.306929E-01  0.000000E+00
  5.775910E-01  6.248956E-02  5.000000E-01  5.834240E-01  6.306001E-02  0.000000E+00  1.143090E-02 -1.229516E-03 -1.068897E-17 -4.522548E-01  0.000000E+00
  5.569470E-01  6.466272E-02  5.000000E-01  5.625715E-01  6.525511E-02  0.000000E+00  1.173209E-02 -1.205099E-03 -5.538019E-18 -4.746436E-01  0.000000E+00
  5.360860E-01  6.675368E-02  5.000000E-01  5.414999E-01  6.736718E-02  0.000000E+00  1.204763E-02 -1.174520E-03  6.537927E-19 -4.977293E-01  0.000000E+00
  5.150640E-01  6.874684E-02  5.000000E-01  5.202656E-01  6.938047E-02  0.000000E+00  1.237690E-02 -1.137204E-03  4.567535E-18 -5.215480E-01  0.000000E+00
  4.939370E-01  7.062760E-02  5.000000E-01  4.989252E-01  7.128023E-02  0.000000E+00  1.271904E-02 -1.092572E-03  4.292282E-18 -5.461072E-01  0.000000E+00
  4.727610E-01  7.238218E-02  5.000000E-01  4.775354E-01  7.305253E-02  0.000000E+00  1.307331E-02 -1.039951E-03  5.963177E-18 -5.713932E-01  0.000000E+00
  5.770140E-06 -5.189576E-05  5.000000E-01  5.829536E-06 -1.130508E-04  0.000000E+00  3.751996E-03 -2.179299E-02 -5.697669E-13  9.104546E-01  0.000000E+00
  9.104010E-05 -3.816721E-04  5.000000E-01  9.196063E-05 -4.461575E-04  0.000000E+00  1.999629E-02 -3.479281E-02 -4.871139E-13  9.169330E-01  0.000000E+00
  4.796980E-04 -8.882301E-04  5.000000E-01  4.845435E-04 -9.578311E-04  0.000000E+00  3.856484E-02 -3.412405E-02 -3.123940E-13  6.047393E-01  0.000000E+00
  1.456590E-03 -1.466576E-03  5.000000E-01  1.471301E-03 -1.542018E-03  0.000000E+00  4.178847E-02 -1.998522E-02 -1.327803E-13  2.726069E-01  0.000000E+00
  3.096410E-03 -2.015955E-03  5.000000E-01  3.127681E-03 -2.096945E-03  0.000000E+00  3.422960E-02 -9.818938E-03 -2.361162E-14  1.587557E-01  0.000000E+00
  5.335170E-03 -2.515073E-03  5.000000E-01  5.389050E-03 -2.601103E-03  0.000000E+00  2.736120E-02 -5.287596E-03  1.024982E-14  1.419910E-01  0.000000E+00
  8.129670E-03 -2.958255E-03  5.000000E-01  8.211772E-03 -3.048761E-03  0.000000E+00  2.316247E-02 -3.158969E-03  7.751816E-15  1.205007E-01  0.000000E+00
  1.145600E-02 -3.327743E-03  5.000000E-01  1.157169E-02 -3.421980E-03  0.000000E+00  1.998375E-02 -1.743062E-03  2.602853E-16  8.460386E-02  0.000000E+00
  1.529970E-02 -3.557041E-03  5.000000E-01  1.545421E-02 -3.653594E-03  0.000000E+00  1.658591E-02 -5.469133E-04 -2.830833E-15  4.631572E-02  0.000000E+00
  1.962420E-02 -3.554372E-03  5.000000E-01  1.982238E-02 -3.650898E-03  0.000000E+00  1.304658E-02  2.389906E-04 -2.444725E-15  3.835070E-02  0.000000E+00
  2.439810E-02 -3.342621E-03  5.000000E-01  2.464449E-02 -3.437009E-03  0.000000E+00  1.066101E-02  4.664371E-04 -8.128237E-16  9.147218E-02  0.000000E+00
  2.966100E-02 -3.112953E-03  5.000000E-01  2.996054E-02 -3.205021E-03  0.000000E+00  1.023362E-02  3.996244E-04  5.775484E-16  1.569066E-01  0.000000E+00
  3.543640E-02 -2.928871E-03  5.000000E-01  3.579427E-02 -3.019080E-03  0.000000E+00  1.097429E-02  3.135816E-04  1.167862E-15  1.751114E-01  0.000000E+00
  4.172970E-02 -2.771341E-03  5.000000E-01  4.215112E-02 -2.859960E-03  0.000000E+00  1.173514E-02  2.902842E-04  1.083968E-15  1.612601E-01  0.000000E+00
  4.854440E-02 -2.601863E-03  5.000000E-01  4.903464E-02 -2.688770E-03  0.000000E+00  1.205701E-02  3.417940E-04  7.086677E-16  1.425203E-01  0.000000E+00
  5.588220E-02 -2.366684E-03  5.000000E-01  5.644655E-02 -2.451216E-03  0.000000E+00  1.200522E-02  4.327455E-04  3.436943E-16  1.305693E-01  0.000000E+00
  6.375220E-02 -2.049198E-03  5.000000E-01  6.439603E-02 -2.130524E-03  0.000000E+00  1.181423E-02  5.095039E-04  1.089253E-16  1.285169E-01  0.000000E+00
  7.217040E-02 -1.661709E-03  5.000000E-01  7.289924E-02 -1.739121E-03  0.000000E+00  1.167047E-02  5.527397E-04 -2.133178E-18  1.318205E-01  0.000000E+00
  8.115500E-02 -1.224922E-03  5.000000E-01  8.197457E-02 -1.297923E-03  0.000000E+00  1.162353E-02  5.770136E-04 -3.622292E-17  1.339691E-01  0.000000E+00
  9.072040E-02 -7.416217E-04  5.000000E-01  9.163657E-02 -8.097421E-04  0.000000E+00  1.162329E-02  6.034208E-04 -3.449941E-17  1.318910E-01  0.000000E+00
  1.008780E-01 -2.003108E-04  5.000000E-01  1.018968E-01 -2.629647E-04  0.000000E+00  1.161016E-02  6.394431E-04 -2.224744E-17  1.276630E-01  0.000000E+00
  1.116380E-01  4.120673E-04  5.000000E-01  1.127654E-01  3.555978E-04  0.000000E+00  1.155434E-02  6.850596E-04 -1.142719E-17  1.237135E-01  0.000000E+00
  1.230100E-01  1.113615E-03  5.000000E-01  1.242523E-01  1.064230E-03  0.000000E+00  1.143736E-02  7.398111E-04 -5.692916E-18  1.207574E-01  0.000000E+00
  1.350030E-01  1.925660E-03  5.000000E-01  1.363664E-01  1.884477E-03  0.000000E+00  1.123848E-02  8.015650E-04 -2.960655E-18  1.193824E-01  0.000000E+00
  1.350030E-01  1.925660E-03  5.000000E-01  1.363664E-01  1.884477E-03  0.000000E+00  1.123848E-02  8.015650E-04 -2.960655E-18  1.193824E-01  0.000000E+00
  1.476220E-01  2.872259E-03  5.000000E-01  1.491128E-01  2.840635E-03  0.000000E+00  1.094065E-02  8.663076E-04  2.017467E-18  1.205391E-01  0.000000E+00
  1.608730E-01  3.978679E-03  5.000000E-01  1.624976E-01  3.958228E-03  0.000000E+00  1.054188E-02  9.283893E-04  9.306597E-18  1.253681E-01  0.000000E+00
  1.747560E-01  5.267738E-03  5.000000E-01  1.765208E-01  5.260305E-03  0.000000E+00  1.006250E-02  9.800755E-04  1.248311E-17  1.347163E-01  0.000000E+00
  1.892730E-01  6.750896E-03  5.000000E-01  1.911844E-01  6.758442E-03  0.000000E+00  9.545904E-03  1.009824E-03  9.340980E-18  1.488877E-01  0.000000E+00
  2.044180E-01  8.412478E-03  5.000000E-01  2.064824E-01  8.436803E-03  0.000000E+00  9.059976E-03  1.004100E-03  4.211485E-18  1.688191E-01  0.000000E+00
  2.201880E-01  1.018045E-02  5.000000E-01  2.224116E-01  1.022263E-02  0.000000E+00  8.665620E-03  9.650655E-04 -5.547471E-20  1.919458E-01  0.000000E+00
  2.365750E-01  1.199048E-02  5.000000E-01  2.389641E-01  1.205094E-02  0.000000E+00  8.370378E-03  9.109605E-04 -3.080528E-18  2.122311E-01  0.000000E+00
  2.535710E-01  1.380972E-02  5.000000E-01  2.561318E-01  1.388855E-02  0.000000E+00  8.144848E-03  8.532890E-04 -3.181833E-18  2.280731E-01  0.000000E+00
  2.711570E-01  1.561143E-02  5.000000E-01  2.738954E-01  1.570845E-02  0.000000E+00  7.966667E-03  7.938545E-04 -1.112140E-18  2.414086E-01  0.000000E+00
  2.893100E-01  1.736921E-02  5.000000E-01  2.922317E-01  1.748399E-02  0.000000E+00  7.829915E-03  7.323638E-04  1.373999E-18  2.534174E-01  0.000000E+00
  3.080020E-01  1.905497E-02  5.000000E-01  3.111125E-01  1.918677E-02  0.000000E+00  7.730787E-03  6.699846E-04  2.975931E-18  2.637657E-01  0.000000E+00
  3.271950E-01  2.064949E-02  5.000000E-01  3.304993E-01  2.079739E-02  0.000000E+00  7.660082E-03  6.084252E-04  2.244539E-18  2.720495E-01  0.000000E+00
  3.468470E-01  2.213805E-02  5.000000E-01  3.503498E-01  2.230099E-02  0.000000E+00  7.607301E-03  5.486620E-04  5.359467E-19  2.785927E-01  0.000000E+00
  3.669110E-01  2.351192E-02  5.000000E-01  3.706164E-01  2.368874E-02  0.000000E+00  7.563940E-03  4.916275E-04  1.981758E-20  2.837330E-01  0.000000E+00
  3.873360E-01  2.476791E-02  5.000000E-01  3.912477E-01  2.495740E-02  0.000000E+00  7.524364E-03  4.373564E-04 -1.181649E-19  2.878296E-01  0.000000E+00
  4.080670E-01  2.590290E-02  5.000000E-01  4.121880E-01  2.610386E-02  0.000000E+00  7.487059E-03  3.845833E-04 -1.242379E-18  2.913714E-01  0.000000E+00
  4.290470E-01  2.690946E-02  5.000000E-01  4.333799E-01  2.712058E-02  0.000000E+00  7.453528E-03  3.322411E-04 -1.689511E-18  2.945408E-01  0.000000E+00
  4.502140E-01  2.778057E-02  5.000000E-01  4.547607E-01  2.800049E-02  0.000000E+00  7.425339E-03  2.802251E-04 -1.986711E-18  2.971765E-01  0.000000E+00
  4.715070E-01  2.851105E-02  5.000000E-01  4.762687E-01  2.873834E-02  0.000000E+00  7.403347E-03  2.286467E-04 -3.801406E-18  2.991938E-01  0.000000E+00
  4.928620E-01  2.909727E-02  5.000000E-01  4.978393E-01  2.933049E-02  0.000000E+00  7.388723E-03  1.772974E-04 -4.896102E-18  3.006457E-01  0.000000E+00
  5.142140E-01  2.953579E-02  5.000000E-01  5.194070E-01  2.977344E-02  0.000000E+00  7.383532E-03  1.255739E-04 -5.341951E-18  3.016153E-01  0.000000E+00
  5.355000E-01  2.982271E-02  5.000000E-01  5.409079E-01  3.006325E-02  0.000000E+00  7.389838E-03  7.310913E-05 -5.613935E-18  3.020580E-01  0.000000E+00
  5.566560E-01  2.995621E-02  5.000000E-01  5.622776E-01  3.019810E-02  0.000000E+00  7.408207E-03  2.027286E-05 -4.672979E-18  3.018152E-01  0.000000E+00
  4.727610E-01  7.238218E-02  5.000000E-01  4.775354E-01  7.305253E-02  0.000000E+00  1.307331E-02 -1.039951E-03  5.963177E-18 -5.713932E-01  0.000000E+00
  4.515970E-01  7.399752E-02  5.000000E-01  4.561576E-01  7.468418E-02  0.000000E+00  1.343909E-02 -9.786189E-04  9.522970E-18 -5.973455E-01  0.000000E+00
  4.305020E-01  7.546175E-02  5.000000E-01  4.348496E-01  7.616320E-02  0.000000E+00  1.381609E-02 -9.079943E-04  1.103937E-17 -6.240233E-01  0.000000E+00
  4.095340E-01  7.676438E-02  5.000000E-01  4.136698E-01  7.747898E-02  0.000000E+00  1.420611E-02 -8.280152E-04  1.126133E-17 -6.519574E-01  0.000000E+00
  3.887520E-01  7.789774E-02  5.000000E-01  3.926780E-01  7.862379E-02  0.000000E+00  1.461578E-02 -7.374926E-04  9.774848E-18 -6.817530E-01  0.000000E+00
  3.682080E-01  7.885265E-02  5.000000E-01  3.719265E-01  7.958834E-02  0.000000E+00  1.505446E-02 -6.326949E-04  7.701868E-18 -7.134718E-01  0.000000E+00
  3.479570E-01  7.961611E-02  5.000000E-01  3.514710E-01  8.035951E-02  0.000000E+00  1.552822E-02 -5.087979E-04  5.076332E-18 -7.467017E-01  0.000000E+00
  3.280470E-01  8.017324E-02  5.000000E-01  3.313599E-01  8.092227E-02  0.000000E+00  1.603722E-02 -3.626496E-04  2.419756E-20 -7.811361E-01  0.000000E+00
  3.085240E-01  8.051314E-02  5.000000E-01  3.116397E-01  8.126560E-02  0.000000E+00  1.657891E-02 -1.928010E-04 -4.185350E-18 -8.167229E-01  0.000000E+00
  2.894320E-01  8.062873E-02  5.000000E-01  2.923549E-01  8.138235E-02  0.000000E+00  1.715203E-02  3.587772E-06 -5.852575E-18 -8.535283E-01  0.000000E+00
  2.708110E-01  8.051260E-02  5.000000E-01  2.735459E-01  8.126506E-02  0.000000E+00  1.776203E-02  2.310932E-04 -3.941435E-18 -8.930405E-01  0.000000E+00
  2.526960E-01  8.015735E-02  5.000000E-01  2.552479E-01  8.090622E-02  0.000000E+00  1.843710E-02  4.969585E-04  2.173098E-18 -9.389428E-01  0.000000E+00
  2.351200E-01  7.955741E-02  5.000000E-01  2.374944E-01  8.030022E-02  0.000000E+00  1.923424E-02  8.268820E-04  8.205984E-18 -9.918417E-01  0.000000E+00
  2.181120E-01  7.868224E-02  5.000000E-01  2.203147E-01  7.941621E-02  0.000000E+00  2.019161E-02  1.266795E-03  1.329990E-17 -1.045619E+00  0.000000E+00
  2.017010E-01  7.747728E-02  5.000000E-01  2.037380E-01  7.819908E-02  0.000000E+00  2.127553E-02  1.844263E-03  1.967047E-17 -1.094555E+00  0.000000E+00
  1.859190E-01  7.591031E-02  5.000000E-01  1.877966E-01  7.661629E-02  0.000000E+00  2.240802E-02  2.559966E-03  2.368858E-17 -1.135790E+00  0.000000E+00
  1.707920E-01  7.396688E-02  5.000000E-01  1.725168E-01  7.465323E-02  0.000000E+00  2.350979E-02  3.411579E-03  2.336495E-17 -1.165030E+00  0.000000E+00
  1.563470E-01  7.164141E-02  5.000000E-01  1.579259E-01  7.230428E-02  0.000000E+00  2.449878E-02  4.390042E-03  2.014433E-17 -1.176938E+00  0.000000E+00
  1.426070E-01  6.893900E-02  5.000000E-01  1.440472E-01  6.957458E-02  0.000000E+00  2.528819E-02  5.463575E-03  1.716902E-17 -1.167610E+00  0.000000E+00
  1.295900E-01  6.588176E-02  5.000000E-01  1.308987E-01  6.648646E-02  0.000000E+00  2.580441E-02  6.576325E-03  1.808442E-17 -1.136052E+00  0.000000E+00
  1.173060E-01  6.250970E-02  5.000000E-01  1.184907E-01  6.308035E-02  0.000000E+00  2.600885E-02  7.667124E-03  2.046107E-17 -1.083314E+00  0.000000E+00
  1.057600E-01  5.887306E-02  5.000000E-01  1.068281E-01  5.940698E-02  0.000000E+00  2.590208E-02  8.684516E-03  2.464237E-17 -1.011620E+00  0.000000E+00
  9.495290E-02  5.502846E-02  5.000000E-01  9.591182E-02  5.552355E-02  0.000000E+00  2.551795E-02  9.588514E-03  3.372887E-17 -9.246273E-01  0.000000E+00
  8.487680E-02  5.103701E-02  5.000000E-01  8.573396E-02  5.149180E-02  0.000000E+00  2.491388E-02  1.035705E-02  4.430965E-17 -8.255998E-01  0.000000E+00
  8.487680E-02  5.103701E-02  5.000000E-01  8.573396E-02  5.149180E-02  0.000000E+00  2.491388E-02  1.035705E-02  4.430965E-17 -8.255998E-01  0.000000E+00
  7.552090E-02  4.696017E-02  5.000000E-01  7.628358E-02  4.737378E-02  0.000000E+00  2.414055E-02  1.097924E-02  5.401178E-17 -7.156987E-01  0.000000E+00
  6.687020E-02  4.285643E-02  5.000000E-01  6.754551E-02  4.322860E-02  0.000000E+00  2.322218E-02  1.142515E-02  5.987410E-17 -5.975870E-01  0.000000E+00
  5.889940E-02  3.878926E-02  5.000000E-01  5.949422E-02  3.912036E-02  0.000000E+00  2.219257E-02  1.165967E-02  5.633501E-17 -4.782963E-01  0.000000E+00
  5.157140E-02  3.482304E-02  5.000000E-01  5.209221E-02  3.511408E-02  0.000000E+00  2.114113E-02  1.170741E-02  4.703017E-17 -3.659913E-01  0.000000E+00
  4.484650E-02  3.101044E-02  5.000000E-01  4.529940E-02  3.126298E-02  0.000000E+00  2.020421E-02  1.168477E-02  4.213058E-17 -2.648940E-01  0.000000E+00
  3.869820E-02  2.738173E-02  5.000000E-01  3.908901E-02  2.759762E-02  0.000000E+00  1.951251E-02  1.175350E-02  4.391497E-17 -1.740174E-01  0.000000E+00
  3.311550E-02  2.394864E-02  5.000000E-01  3.344993E-02  2.412986E-02  0.000000E+00  1.912529E-02  1.202971E-02  5.607355E-17 -8.810365E-02  0.000000E+00
  2.809130E-02  2.071854E-02  5.000000E-01  2.837499E-02  2.086714E-02  0.000000E+00  1.889785E-02  1.247613E-02  7.831160E-17  8.194436E-03  0.000000E+00
  2.362330E-02  1.769537E-02  5.000000E-01  2.386187E-02  1.781344E-02  0.000000E+00  1.844017E-02  1.274033E-02  6.124347E-17  1.249999E-01  0.000000E+00
  1.966610E-02  1.490310E-02  5.000000E-01  1.986471E-02  1.499298E-02  0.000000E+00  1.753873E-02  1.234046E-02 -7.974774E-17  2.365513E-01  0.000000E+00
  1.609460E-02  1.239487E-02  5.000000E-01  1.625714E-02  1.245941E-02  0.000000E+00  1.651126E-02  1.137235E-02 -3.287097E-16  3.156417E-01  0.000000E+00
  1.282740E-02  1.019000E-02  5.000000E-01  1.295694E-02  1.023228E-02  0.000000E+00  1.593127E-02  1.053698E-02 -2.743730E-16  3.648362E-01  0.000000E+00
  9.860990E-03  8.269217E-03  5.000000E-01  9.960576E-03  8.292096E-03  0.000000E+00  1.620293E-02  1.047300E-02  1.116386E-15  4.021586E-01  0.000000E+00
  7.251350E-03  6.586919E-03  5.000000E-01  7.324582E-03  6.592808E-03  0.000000E+00  1.740978E-02  1.143453E-02  4.537307E-15  4.421689E-01  0.000000E+00
  5.038810E-03  5.109950E-03  5.000000E-01  5.089697E-03  5.100924E-03  0.000000E+00  1.944828E-02  1.348964E-02  6.528234E-15  4.875205E-01  0.000000E+00
  3.239710E-03  3.821419E-03  5.000000E-01  3.272429E-03  3.799380E-03  0.000000E+00  2.197450E-02  1.678697E-02 -5.833192E-15  5.448904E-01  0.000000E+00
  1.861880E-03  2.712183E-03  5.000000E-01  1.880684E-03  2.678942E-03  0.000000E+00  2.372912E-02  2.113105E-02 -5.328908E-14  6.310340E-01  0.000000E+00
  9.013910E-04  1.781287E-03  5.000000E-01  9.104951E-04  1.738645E-03  0.000000E+00  2.171324E-02  2.431507E-02 -1.494191E-13  7.675577E-01  0.000000E+00
  3.295630E-04  1.037052E-03  5.000000E-01  3.328923E-04  9.868945E-04  0.000000E+00  1.312604E-02  1.967231E-02 -2.848275E-13  9.383840E-01  0.000000E+00
  7.194000E-05  4.946535E-04  5.000000E-01  7.266764E-05  4.390180E-04  0.000000E+00  2.333857E-03  4.367363E-04 -4.240724E-13  1.022985E+00  0.000000E+00
  4.516100E-06  1.683400E-04  5.000000E-01  4.562832E-06  1.094091E-04  0.000000E+00 -2.264742E-03 -2.161133E-02 -5.189263E-13  9.270119E-01  0.000000E+00
 -1.112850E-09  6.002476E-05  5.000000E-01  0.000000E+00  0.000000E+00  0.000000E+00 -1.308387E-03 -2.257841E-02 -5.644386E-13  8.271808E-01  0.000000E+00