 Title = "ADflow Slice Data"
Variables =  "CoordinateX"  "CoordinateY"  "CoordinateZ"  "XoC"  "YoC"  "ZoC" "VelocityX" "VelocityY" "VelocityZ" "CoefPressure" "Mach" 
Zone T= "Slice_0001 None Absolute Regular z = 0.50000000"
 Nodes =          192  Elements=          184  ZONETYPE=FELINESEG
 DATAPACKING=POINT
  5.566560E-01  2.555871E-02  5.000000E-01  5.622775E-01  2.581768E-02  0.000000E+00  7.138634E-03  1.967432E-04 -1.402734E-19  3.026824E-01  0.000000E+00
  5.776220E-01  2.600238E-02  5.000000E-01  5.834552E-01  2.626583E-02  0.000000E+00  7.288087E-03  1.211675E-04 -1.005876E-19  3.012181E-01  0.000000E+00
  5.983370E-01  2.625243E-02  5.000000E-01  6.043794E-01  2.651841E-02  0.000000E+00  7.399059E-03  6.982378E-05 -3.075343E-19  2.951623E-01  0.000000E+00
  6.187480E-01  2.639329E-02  5.000000E-01  6.249966E-01  2.666069E-02  0.000000E+00  7.415645E-03  4.539983E-05 -8.663183E-21  2.892602E-01  0.000000E+00
  6.388030E-01  2.650167E-02  5.000000E-01  6.452541E-01  2.677016E-02  0.000000E+00  7.313854E-03  4.653805E-05 -1.266539E-19  2.859893E-01  0.000000E+00
  6.584530E-01  2.664424E-02  5.000000E-01  6.651025E-01  2.691417E-02  0.000000E+00  7.097402E-03  6.403830E-05 -8.353846E-19  2.858299E-01  0.000000E+00
  6.776550E-01  2.685459E-02  5.000000E-01  6.844984E-01  2.712665E-02  0.000000E+00  6.814335E-03  7.128247E-05 -8.070044E-19  2.919237E-01  0.000000E+00
  6.963720E-01  2.704538E-02  5.000000E-01  7.034045E-01  2.731937E-02  0.000000E+00  6.551853E-03  4.553360E-05 -8.469002E-19  3.048089E-01  0.000000E+00
  7.145680E-01  2.710958E-02  5.000000E-01  7.217842E-01  2.738421E-02  0.000000E+00  6.378835E-03 -1.199981E-05 -8.432776E-19  3.182984E-01  0.000000E+00
  7.322140E-01  2.697626E-02  5.000000E-01  7.396084E-01  2.724954E-02  0.000000E+00  6.315174E-03 -9.114154E-05 -5.055458E-19  3.277274E-01  0.000000E+00
  7.492860E-01  2.661137E-02  5.000000E-01  7.568528E-01  2.688096E-02  0.000000E+00  6.352486E-03 -1.840603E-04 -4.143438E-19  3.324813E-01  0.000000E+00
  7.657630E-01  2.601036E-02  5.000000E-01  7.734962E-01  2.627389E-02  0.000000E+00  6.476854E-03 -2.864731E-04 -3.740171E-19  3.332239E-01  0.000000E+00
  7.816300E-01  2.518856E-02  5.000000E-01  7.895235E-01  2.544379E-02  0.000000E+00  6.674807E-03 -3.966529E-04  4.809696E-20  3.305298E-01  0.000000E+00
  7.968740E-01  2.417054E-02  5.000000E-01  8.049214E-01  2.441549E-02  0.000000E+00  6.933082E-03 -5.132530E-04  9.675146E-19  3.249138E-01  0.000000E+00
  8.114890E-01  2.298676E-02  5.000000E-01  8.196840E-01  2.321975E-02  0.000000E+00  7.234806E-03 -6.316367E-04  2.535582E-19  3.163442E-01  0.000000E+00
  8.254710E-01  2.168114E-02  5.000000E-01  8.338072E-01  2.190095E-02  0.000000E+00  7.557705E-03 -7.448054E-04 -1.074822E-18  3.049503E-01  0.000000E+00
  8.388180E-01  2.029965E-02  5.000000E-01  8.472890E-01  2.050551E-02  0.000000E+00  7.880859E-03 -8.476672E-04 -9.677011E-19  2.917308E-01  0.000000E+00
  8.515320E-01  1.888276E-02  5.000000E-01  8.601314E-01  1.907431E-02  0.000000E+00  8.190789E-03 -9.380226E-04  1.897181E-19  2.777068E-01  0.000000E+00
  8.636180E-01  1.746288E-02  5.000000E-01  8.723394E-01  1.764009E-02  0.000000E+00  8.480817E-03 -1.015625E-03 -1.161023E-19  2.635020E-01  0.000000E+00
  8.750810E-01  1.606490E-02  5.000000E-01  8.839182E-01  1.622800E-02  0.000000E+00  8.748147E-03 -1.081278E-03 -1.194747E-18  2.494468E-01  0.000000E+00
  8.859290E-01  1.470677E-02  5.000000E-01  8.948757E-01  1.485615E-02  0.000000E+00  8.992519E-03 -1.136382E-03 -3.347094E-19  2.357992E-01  0.000000E+00
  8.961710E-01  1.340081E-02  5.000000E-01  9.052212E-01  1.353700E-02  0.000000E+00  9.215611E-03 -1.182547E-03  3.425488E-19  2.227162E-01  0.000000E+00
  9.058170E-01  1.215542E-02  5.000000E-01  9.149646E-01  1.227904E-02  0.000000E+00  9.419997E-03 -1.221296E-03 -1.006320E-19  2.102515E-01  0.000000E+00
  9.148770E-01  1.097601E-02  5.000000E-01  9.241161E-01  1.108771E-02  0.000000E+00  9.608199E-03 -1.253864E-03 -2.049997E-19  1.983992E-01  0.000000E+00
  9.148770E-01  1.097601E-02  5.000000E-01  9.241161E-01  1.108771E-02  0.000000E+00  9.608199E-03 -1.253864E-03 -2.049997E-19  1.983992E-01  0.000000E+00
  9.233640E-01  9.865792E-03  5.000000E-01  9.326888E-01  9.966282E-03  0.000000E+00  9.782609E-03 -1.281416E-03  8.657781E-19  1.871674E-01  0.000000E+00
  9.312880E-01  8.826484E-03  5.000000E-01  9.406928E-01  8.916479E-03  0.000000E+00  9.945764E-03 -1.305037E-03  8.789583E-19  1.765601E-01  0.000000E+00
  9.386620E-01  7.858506E-03  5.000000E-01  9.481413E-01  7.938726E-03  0.000000E+00  1.010002E-02 -1.325639E-03 -4.274204E-19  1.665352E-01  0.000000E+00
  9.454960E-01  6.961651E-03  5.000000E-01  9.550443E-01  7.032814E-03  0.000000E+00  1.024711E-02 -1.343862E-03 -7.502599E-19  1.570321E-01  0.000000E+00
  9.518040E-01  6.134947E-03  5.000000E-01  9.614160E-01  6.197761E-03  0.000000E+00  1.038877E-02 -1.360344E-03  2.500602E-19  1.480360E-01  0.000000E+00
  9.575950E-01  5.377302E-03  5.000000E-01  9.672655E-01  5.432464E-03  0.000000E+00  1.052757E-02 -1.375793E-03  8.004082E-20  1.395147E-01  0.000000E+00
  9.628810E-01  4.687264E-03  5.000000E-01  9.726049E-01  4.735458E-03  0.000000E+00  1.066778E-02 -1.390993E-03 -1.191774E-18  1.314217E-01  0.000000E+00
  9.676710E-01  4.063384E-03  5.000000E-01  9.774432E-01  4.105278E-03  0.000000E+00  1.081652E-02 -1.407095E-03 -1.842907E-18  1.237368E-01  0.000000E+00
  9.719750E-01  3.504151E-03  5.000000E-01  9.817907E-01  3.540397E-03  0.000000E+00  1.098303E-02 -1.425366E-03 -2.238365E-18  1.164436E-01  0.000000E+00
  9.758020E-01  3.008075E-03  5.000000E-01  9.856563E-01  3.039312E-03  0.000000E+00  1.117126E-02 -1.446417E-03 -3.180909E-18  1.095416E-01  0.000000E+00
  9.791590E-01  2.573830E-03  5.000000E-01  9.890472E-01  2.600681E-03  0.000000E+00  1.135925E-02 -1.467711E-03 -4.004726E-18  1.028919E-01  0.000000E+00
  9.820540E-01  2.200125E-03  5.000000E-01  9.919715E-01  2.223202E-03  0.000000E+00  1.147942E-02 -1.481561E-03  4.341877E-18  9.684627E-02  0.000000E+00
  9.844930E-01  1.885865E-03  5.000000E-01  9.944351E-01  1.905769E-03  0.000000E+00  1.140524E-02 -1.468571E-03  2.929314E-17  9.228374E-02  0.000000E+00
  9.864820E-01  1.630056E-03  5.000000E-01  9.964442E-01  1.647376E-03  0.000000E+00  1.082269E-02 -1.380030E-03  5.107079E-17  8.554311E-02  0.000000E+00
  9.880240E-01  1.431953E-03  5.000000E-01  9.980018E-01  1.447272E-03  0.000000E+00  9.251535E-03 -1.197096E-03 -4.001696E-17  7.093796E-02  0.000000E+00
  9.891220E-01  1.290904E-03  5.000000E-01  9.991109E-01  1.304799E-03  0.000000E+00  8.505288E-03 -1.204212E-03 -5.193049E-16  8.795796E-02  0.000000E+00
  9.897810E-01  1.206435E-03  5.000000E-01  9.997765E-01  1.219477E-03  0.000000E+00  1.575792E-02 -8.191403E-04 -1.572555E-15  1.804972E-01  0.000000E+00
  9.900000E-01  1.178325E-03  5.000000E-01  9.999977E-01  1.191083E-03  0.000000E+00  1.313201E-02 -1.888649E-03 -2.044887E-15 -6.138924E-02  0.000000E+00
  9.900000E-01  1.364545E-03  5.000000E-01  9.999977E-01  1.379184E-03  0.000000E+00  1.212037E-03 -1.385750E-02 -1.289199E-15 -2.037741E-01  0.000000E+00
  9.900000E-01  1.550756E-03  5.000000E-01  9.999977E-01  1.567276E-03  0.000000E+00 -7.392062E-04 -1.459764E-02 -3.344789E-16 -2.368397E-02  0.000000E+00
  9.900000E-01  1.736977E-03  5.000000E-01  9.999977E-01  1.755377E-03  0.000000E+00 -4.555344E-04  2.994962E-03  4.529520E-16 -3.356793E-02  0.000000E+00
  9.900000E-01  1.923198E-03  5.000000E-01  9.999977E-01  1.943478E-03  0.000000E+00  7.923625E-04  3.203534E-03  1.599900E-15 -1.543026E-01  0.000000E+00
  9.900000E-01  2.109419E-03  5.000000E-01  9.999977E-01  2.131580E-03  0.000000E+00  7.993822E-03 -4.654852E-03  2.425480E-15 -5.833128E-02  0.000000E+00
  9.900000E-01  2.109419E-03  5.000000E-01  9.999977E-01  2.131580E-03  0.000000E+00  7.993822E-03 -4.654852E-03  2.425480E-15 -5.833128E-02  0.000000E+00
  9.897920E-01  2.154780E-03  5.000000E-01  9.997876E-01  2.177400E-03  0.000000E+00  8.785962E-03 -2.726390E-03  1.733243E-15  8.124718E-02  0.000000E+00
  9.891660E-01  2.290814E-03  5.000000E-01  9.991553E-01  2.314807E-03  0.000000E+00  3.178360E-03 -6.031024E-04  5.634159E-16  1.105240E-02  0.000000E+00
  9.881230E-01  2.517308E-03  5.000000E-01  9.981018E-01  2.543588E-03  0.000000E+00  3.002560E-03 -6.474384E-04  4.743059E-17 -1.123994E-03  0.000000E+00
  9.866580E-01  2.833997E-03  5.000000E-01  9.966220E-01  2.863475E-03  0.000000E+00  3.557371E-03 -7.755658E-04 -5.780872E-17  5.002167E-03  0.000000E+00
  9.847700E-01  3.240409E-03  5.000000E-01  9.947149E-01  3.273992E-03  0.000000E+00  3.706476E-03 -7.953684E-04 -3.825812E-17  2.942138E-03  0.000000E+00
  9.824550E-01  3.735990E-03  5.000000E-01  9.923765E-01  3.774578E-03  0.000000E+00  3.758138E-03 -8.007940E-04 -1.288037E-17 -2.649202E-03  0.000000E+00
  9.797070E-01  4.320047E-03  5.000000E-01  9.896008E-01  4.364533E-03  0.000000E+00  3.845846E-03 -8.141892E-04 -2.415963E-18 -8.928007E-03  0.000000E+00
  9.765220E-01  4.991729E-03  5.000000E-01  9.863836E-01  5.042998E-03  0.000000E+00  3.978442E-03 -8.351352E-04  3.230527E-19 -1.624024E-02  0.000000E+00
  9.728930E-01  5.750077E-03  5.000000E-01  9.827180E-01  5.809004E-03  0.000000E+00  4.153206E-03 -8.633102E-04  7.467311E-19 -2.468195E-02  0.000000E+00
  9.688130E-01  6.593961E-03  5.000000E-01  9.785968E-01  6.661410E-03  0.000000E+00  4.363701E-03 -8.972504E-04  8.669598E-19 -3.408800E-02  0.000000E+00
  9.642740E-01  7.522142E-03  5.000000E-01  9.740119E-01  7.598965E-03  0.000000E+00  4.600459E-03 -9.346958E-04  1.272849E-18 -4.429888E-02  0.000000E+00
  9.592670E-01  8.533249E-03  5.000000E-01  9.689544E-01  8.620282E-03  0.000000E+00  4.855217E-03 -9.737983E-04  1.425095E-18 -5.525619E-02  0.000000E+00
  9.537850E-01  9.625740E-03  5.000000E-01  9.634170E-01  9.723807E-03  0.000000E+00  5.122211E-03 -1.013141E-03  1.186089E-18 -6.682332E-02  0.000000E+00
  9.478160E-01  1.079800E-02  5.000000E-01  9.573877E-01  1.090790E-02  0.000000E+00  5.397033E-03 -1.051709E-03  1.096395E-18 -7.891604E-02  0.000000E+00
  9.413520E-01  1.204833E-02  5.000000E-01  9.508584E-01  1.217086E-02  0.000000E+00  5.676521E-03 -1.088844E-03  7.989522E-19 -9.145394E-02  0.000000E+00
  9.343800E-01  1.337504E-02  5.000000E-01  9.438160E-01  1.351097E-02  0.000000E+00  5.957976E-03 -1.124033E-03  1.057054E-19 -1.043348E-01  0.000000E+00
  9.268920E-01  1.477610E-02  5.000000E-01  9.362524E-01  1.492618E-02  0.000000E+00  6.239114E-03 -1.156917E-03 -6.566197E-19 -1.175200E-01  0.000000E+00
  9.188750E-01  1.624989E-02  5.000000E-01  9.281545E-01  1.641485E-02  0.000000E+00  6.518160E-03 -1.187262E-03  3.731809E-20 -1.309289E-01  0.000000E+00
  9.103190E-01  1.779454E-02  5.000000E-01  9.195121E-01  1.797510E-02  0.000000E+00  6.793576E-03 -1.214998E-03  8.011617E-19 -1.445317E-01  0.000000E+00
  9.012130E-01  1.940837E-02  5.000000E-01  9.103141E-01  1.960522E-02  0.000000E+00  7.064441E-03 -1.240092E-03  4.911673E-19 -1.582972E-01  0.000000E+00
  8.915460E-01  2.108964E-02  5.000000E-01  9.005495E-01  2.130347E-02  0.000000E+00  7.330561E-03 -1.262744E-03  9.943890E-20 -1.722438E-01  0.000000E+00
  8.813080E-01  2.283681E-02  5.000000E-01  8.902081E-01  2.306829E-02  0.000000E+00  7.592933E-03 -1.283313E-03 -1.082654E-18 -1.864200E-01  0.000000E+00
  8.704900E-01  2.464806E-02  5.000000E-01  8.792808E-01  2.489783E-02  0.000000E+00  7.853859E-03 -1.302193E-03 -3.140695E-19 -2.008924E-01  0.000000E+00
  8.704900E-01  2.464806E-02  5.000000E-01  8.792808E-01  2.489783E-02  0.000000E+00  7.853859E-03 -1.302193E-03 -3.140695E-19 -2.008924E-01  0.000000E+00
  8.590830E-01  2.652144E-02  5.000000E-01  8.677586E-01  2.679013E-02  0.000000E+00  8.116961E-03 -1.319983E-03  1.539304E-18 -2.157729E-01  0.000000E+00
  8.470810E-01  2.845452E-02  5.000000E-01  8.556354E-01  2.874273E-02  0.000000E+00  8.387415E-03 -1.337035E-03  1.138411E-18 -2.312313E-01  0.000000E+00
  8.344780E-01  3.044344E-02  5.000000E-01  8.429052E-01  3.075174E-02  0.000000E+00  8.672130E-03 -1.353108E-03  6.050882E-19 -2.475142E-01  0.000000E+00
  8.212700E-01  3.248132E-02  5.000000E-01  8.295638E-01  3.281020E-02  0.000000E+00  8.980040E-03 -1.367036E-03 -3.296492E-19 -2.650087E-01  0.000000E+00
  8.074550E-01  3.455620E-02  5.000000E-01  8.156093E-01  3.490603E-02  0.000000E+00  9.320072E-03 -1.375658E-03 -9.597340E-19 -2.837649E-01  0.000000E+00
  7.930350E-01  3.664815E-02  5.000000E-01  8.010436E-01  3.701911E-02  0.000000E+00  9.690658E-03 -1.372397E-03 -6.700231E-19 -3.023409E-01  0.000000E+00
  7.780130E-01  3.872644E-02  5.000000E-01  7.858699E-01  3.911838E-02  0.000000E+00  1.006620E-02 -1.349940E-03 -1.750504E-18 -3.181930E-01  0.000000E+00
  7.623950E-01  4.075746E-02  5.000000E-01  7.700942E-01  4.116992E-02  0.000000E+00  1.040279E-02 -1.308719E-03 -1.962000E-18 -3.304803E-01  0.000000E+00
  7.461930E-01  4.272875E-02  5.000000E-01  7.537286E-01  4.316111E-02  0.000000E+00  1.066275E-02 -1.255253E-03 -1.892964E-18 -3.393996E-01  0.000000E+00
  7.294180E-01  4.463888E-02  5.000000E-01  7.367842E-01  4.509053E-02  0.000000E+00  1.082362E-02 -1.196310E-03 -1.609716E-18 -3.445070E-01  0.000000E+00
  7.120900E-01  4.649759E-02  5.000000E-01  7.192812E-01  4.696801E-02  0.000000E+00  1.087471E-02 -1.140363E-03 -3.399091E-20 -3.458886E-01  0.000000E+00
  6.942280E-01  4.832902E-02  5.000000E-01  7.012388E-01  4.881794E-02  0.000000E+00  1.082362E-02 -1.098405E-03 -4.282593E-19 -3.454678E-01  0.000000E+00
  6.758590E-01  5.017356E-02  5.000000E-01  6.826843E-01  5.068110E-02  0.000000E+00  1.071084E-02 -1.081541E-03 -1.553953E-18 -3.480392E-01  0.000000E+00
  6.570120E-01  5.208471E-02  5.000000E-01  6.636470E-01  5.261156E-02  0.000000E+00  1.061486E-02 -1.091403E-03 -9.782745E-19 -3.581718E-01  0.000000E+00
  6.377220E-01  5.409466E-02  5.000000E-01  6.441622E-01  5.464180E-02  0.000000E+00  1.061903E-02 -1.112478E-03  3.623747E-19 -3.750850E-01  0.000000E+00
  6.180260E-01  5.616984E-02  5.000000E-01  6.242673E-01  5.673794E-02  0.000000E+00  1.076389E-02 -1.128995E-03  1.582115E-18 -3.964710E-01  0.000000E+00
  5.979670E-01  5.826347E-02  5.000000E-01  6.040057E-01  5.885272E-02  0.000000E+00  1.104617E-02 -1.135473E-03  6.529985E-19 -4.216792E-01  0.000000E+00
  5.775910E-01  6.032579E-02  5.000000E-01  5.834239E-01  6.093586E-02  0.000000E+00  1.143677E-02 -1.125970E-03 -3.417630E-19 -4.482637E-01  0.000000E+00
  5.569470E-01  6.230450E-02  5.000000E-01  5.625714E-01  6.293456E-02  0.000000E+00  1.187918E-02 -1.092681E-03 -6.193893E-19 -4.719714E-01  0.000000E+00
  5.360860E-01  6.414717E-02  5.000000E-01  5.414998E-01  6.479583E-02  0.000000E+00  1.229986E-02 -1.038570E-03 -8.030511E-19 -4.912481E-01  0.000000E+00
  5.150640E-01  6.584265E-02  5.000000E-01  5.202655E-01  6.650844E-02  0.000000E+00  1.264538E-02 -9.775583E-04  7.236566E-19 -5.079428E-01  0.000000E+00
  4.939370E-01  6.740677E-02  5.000000E-01  4.989251E-01  6.808835E-02  0.000000E+00  1.290455E-02 -9.187903E-04  8.213090E-19 -5.234406E-01  0.000000E+00
  4.727610E-01  6.885580E-02  5.000000E-01  4.775353E-01  6.955201E-02  0.000000E+00  1.309637E-02 -8.656158E-04  1.187324E-19 -5.391862E-01  0.000000E+00
  5.770140E-06 -1.133922E-04  5.000000E-01  5.829535E-06 -1.136785E-04  0.000000E+00 -3.433833E-03  2.358884E-02 -8.740358E-13  9.033370E-01  0.000000E+00
  9.104010E-05 -4.492813E-04  5.000000E-01  9.196061E-05 -4.529596E-04  0.000000E+00  2.737644E-03  2.180789E-03 -7.682983E-13  1.053793E+00  0.000000E+00
  4.796980E-04 -9.819610E-04  5.000000E-01  4.845435E-04 -9.910188E-04  0.000000E+00  1.827660E-02 -1.509398E-02 -5.228375E-13  9.446811E-01  0.000000E+00
  1.456590E-03 -1.626525E-03  5.000000E-01  1.471301E-03 -1.642093E-03  0.000000E+00  2.901697E-02 -1.530516E-02 -2.574748E-13  6.700967E-01  0.000000E+00
  3.096410E-03 -2.290335E-03  5.000000E-01  3.127681E-03 -2.312605E-03  0.000000E+00  2.955752E-02 -1.046318E-02 -7.984406E-14  4.942751E-01  0.000000E+00
  5.335170E-03 -2.950957E-03  5.000000E-01  5.389049E-03 -2.979899E-03  0.000000E+00  2.666373E-02 -7.084312E-03 -2.384668E-15  4.106964E-01  0.000000E+00
  8.129670E-03 -3.601831E-03  5.000000E-01  8.211770E-03 -3.637346E-03  0.000000E+00  2.389824E-02 -5.046884E-03  1.464342E-14  3.470158E-01  0.000000E+00
  1.145600E-02 -4.224109E-03  5.000000E-01  1.157169E-02 -4.265908E-03  0.000000E+00  2.134282E-02 -3.480761E-03  1.014786E-14  2.827487E-01  0.000000E+00
  1.529970E-02 -4.747988E-03  5.000000E-01  1.545421E-02 -4.795078E-03  0.000000E+00  1.838236E-02 -1.995187E-03  3.760354E-15  2.176653E-01  0.000000E+00
  1.962420E-02 -5.073364E-03  5.000000E-01  1.982238E-02 -5.123740E-03  0.000000E+00  1.506932E-02 -8.487642E-04  5.264589E-16  1.792833E-01  0.000000E+00
  2.439810E-02 -5.217155E-03  5.000000E-01  2.464449E-02 -5.268983E-03  0.000000E+00  1.260629E-02 -3.867845E-04 -3.133870E-16  2.026560E-01  0.000000E+00
  2.966100E-02 -5.377940E-03  5.000000E-01  2.996054E-02 -5.431391E-03  0.000000E+00  1.190565E-02 -4.206921E-04 -2.618801E-16  2.443700E-01  0.000000E+00
  3.543640E-02 -5.622465E-03  5.000000E-01  3.579426E-02 -5.678386E-03  0.000000E+00  1.236158E-02 -5.616893E-04 -9.535511E-17  2.442672E-01  0.000000E+00
  4.172970E-02 -5.929591E-03  5.000000E-01  4.215112E-02 -5.988613E-03  0.000000E+00  1.293239E-02 -6.278272E-04 -9.091889E-18  2.147160E-01  0.000000E+00
  4.854440E-02 -6.256342E-03  5.000000E-01  4.903464E-02 -6.318664E-03  0.000000E+00  1.317017E-02 -5.734119E-04  1.172747E-17  1.806316E-01  0.000000E+00
  5.588220E-02 -6.542017E-03  5.000000E-01  5.644654E-02 -6.607224E-03  0.000000E+00  1.310632E-02 -4.425240E-04  8.290304E-18  1.533242E-01  0.000000E+00
  6.375220E-02 -6.764619E-03  5.000000E-01  6.439602E-02 -6.832074E-03  0.000000E+00  1.294538E-02 -3.132336E-04  3.206229E-18  1.367088E-01  0.000000E+00
  7.217040E-02 -6.932658E-03  5.000000E-01  7.289923E-02 -7.001811E-03  0.000000E+00  1.286169E-02 -2.213127E-04  1.133325E-18  1.265729E-01  0.000000E+00
  8.115500E-02 -7.063087E-03  5.000000E-01  8.197456E-02 -7.133556E-03  0.000000E+00  1.289787E-02 -1.528562E-04  4.936106E-19  1.159891E-01  0.000000E+00
  9.072040E-02 -7.152409E-03  5.000000E-01  9.163656E-02 -7.223781E-03  0.000000E+00  1.299134E-02 -7.821830E-05  3.053090E-19  1.013985E-01  0.000000E+00
  1.008780E-01 -7.180228E-03  5.000000E-01  1.018967E-01 -7.251880E-03  0.000000E+00  1.306633E-02  1.675537E-05 -1.622246E-19  8.499008E-02  0.000000E+00
  1.116380E-01 -7.122810E-03  5.000000E-01  1.127654E-01 -7.193882E-03  0.000000E+00  1.307666E-02  1.345511E-04 -1.170962E-19  6.959603E-02  0.000000E+00
  1.230100E-01 -6.949239E-03  5.000000E-01  1.242522E-01 -7.018559E-03  0.000000E+00  1.298671E-02  2.751094E-04 -4.316481E-19  5.634019E-02  0.000000E+00
  1.350030E-01 -6.623404E-03  5.000000E-01  1.363664E-01 -6.689433E-03  0.000000E+00  1.275876E-02  4.344277E-04 -3.752839E-19  4.634057E-02  0.000000E+00
  1.350030E-01 -6.623404E-03  5.000000E-01  1.363664E-01 -6.689433E-03  0.000000E+00  1.275876E-02  4.344277E-04 -3.752839E-19  4.634057E-02  0.000000E+00
  1.476220E-01 -6.104791E-03  5.000000E-01  1.491128E-01 -6.165582E-03  0.000000E+00  1.236447E-02  6.034925E-04  8.274969E-19  4.125552E-02  0.000000E+00
  1.608730E-01 -5.351527E-03  5.000000E-01  1.624976E-01 -5.404712E-03  0.000000E+00  1.180412E-02  7.683095E-04  1.068436E-18  4.300962E-02  0.000000E+00
  1.747560E-01 -4.326708E-03  5.000000E-01  1.765208E-01 -4.369543E-03  0.000000E+00  1.111864E-02  9.103209E-04  4.635245E-20  5.295366E-02  0.000000E+00
  1.892730E-01 -3.013416E-03  5.000000E-01  1.911844E-01 -3.042989E-03  0.000000E+00  1.038922E-02  1.006262E-03 -1.657621E-20  7.147132E-02  0.000000E+00
  2.044180E-01 -1.440079E-03  5.000000E-01  2.064824E-01 -1.453763E-03  0.000000E+00  9.733454E-03  1.034871E-03  6.427557E-19  9.953447E-02  0.000000E+00
  2.201880E-01  2.797580E-04  5.000000E-01  2.224116E-01  2.834420E-04  0.000000E+00  9.243716E-03  1.006340E-03  1.312156E-18  1.317822E-01  0.000000E+00
  2.365750E-01  2.056239E-03  5.000000E-01  2.389641E-01  2.077863E-03  0.000000E+00  8.912916E-03  9.565554E-04  1.897114E-18  1.578020E-01  0.000000E+00
  2.535710E-01  3.858098E-03  5.000000E-01  2.561317E-01  3.897919E-03  0.000000E+00  8.678116E-03  9.050398E-04  1.041392E-18  1.759650E-01  0.000000E+00
  2.711570E-01  5.662086E-03  5.000000E-01  2.738953E-01  5.720125E-03  0.000000E+00  8.500653E-03  8.534595E-04  4.869693E-19  1.905557E-01  0.000000E+00
  2.893100E-01  7.445610E-03  5.000000E-01  2.922317E-01  7.521660E-03  0.000000E+00  8.374327E-03  8.008748E-04  1.581538E-18  2.036363E-01  0.000000E+00
  3.080020E-01  9.183669E-03  5.000000E-01  3.111124E-01  9.277271E-03  0.000000E+00  8.296194E-03  7.480351E-04  1.253064E-18  2.147461E-01  0.000000E+00
  3.271950E-01  1.085938E-02  5.000000E-01  3.304992E-01  1.096990E-02  0.000000E+00  8.252704E-03  6.965685E-04 -8.226364E-19  2.234350E-01  0.000000E+00
  3.468470E-01  1.246063E-02  5.000000E-01  3.503497E-01  1.258732E-02  0.000000E+00  8.220730E-03  6.494220E-04 -4.915347E-19  2.297958E-01  0.000000E+00
  3.669110E-01  1.399498E-02  5.000000E-01  3.706163E-01  1.413717E-02  0.000000E+00  8.171021E-03  6.100405E-04  9.109867E-19  2.341462E-01  0.000000E+00
  3.873360E-01  1.548235E-02  5.000000E-01  3.912476E-01  1.563956E-02  0.000000E+00  8.077664E-03  5.787478E-04  1.056023E-18  2.377985E-01  0.000000E+00
  4.080670E-01  1.694362E-02  5.000000E-01  4.121880E-01  1.711559E-02  0.000000E+00  7.927733E-03  5.537222E-04  1.308477E-18  2.422803E-01  0.000000E+00
  4.290470E-01  1.839506E-02  5.000000E-01  4.333798E-01  1.858169E-02  0.000000E+00  7.722714E-03  5.328386E-04  1.661630E-18  2.480579E-01  0.000000E+00
  4.502140E-01  1.985120E-02  5.000000E-01  4.547606E-01  2.005253E-02  0.000000E+00  7.482682E-03  5.096720E-04  2.319896E-19  2.558417E-01  0.000000E+00
  4.715070E-01  2.128845E-02  5.000000E-01  4.762686E-01  2.150429E-02  0.000000E+00  7.251444E-03  4.747647E-04 -1.026295E-18  2.667078E-01  0.000000E+00
  4.928620E-01  2.264294E-02  5.000000E-01  4.978393E-01  2.287246E-02  0.000000E+00  7.079506E-03  4.248278E-04 -4.744887E-19  2.790360E-01  0.000000E+00
  5.142140E-01  2.384854E-02  5.000000E-01  5.194069E-01  2.409024E-02  0.000000E+00  7.000267E-03  3.607595E-04 -6.019894E-19  2.898974E-01  0.000000E+00
  5.355000E-01  2.484011E-02  5.000000E-01  5.409079E-01  2.509182E-02  0.000000E+00  7.024959E-03  2.825577E-04 -7.430999E-19  2.981436E-01  0.000000E+00
  5.566560E-01  2.555871E-02  5.000000E-01  5.622775E-01  2.581768E-02  0.000000E+00  7.138634E-03  1.967432E-04 -1.402734E-19  3.026824E-01  0.000000E+00
  4.727610E-01  6.885580E-02  5.000000E-01  4.775353E-01  6.955201E-02  0.000000E+00  1.309637E-02 -8.656158E-04  1.187324E-19 -5.391862E-01  0.000000E+00
  4.515970E-01  7.020539E-02  5.000000E-01  4.561576E-01  7.091523E-02  0.000000E+00  1.325920E-02 -8.201586E-04  1.149093E-19 -5.576751E-01  0.000000E+00
  4.305020E-01  7.146953E-02  5.000000E-01  4.348495E-01  7.219214E-02  0.000000E+00  1.344252E-02 -7.792609E-04 -3.969085E-19 -5.804307E-01  0.000000E+00
  4.095340E-01  7.264449E-02  5.000000E-01  4.136698E-01  7.337897E-02  0.000000E+00  1.368828E-02 -7.340387E-04 -3.732418E-20 -6.072466E-01  0.000000E+00
  3.887520E-01  7.370962E-02  5.000000E-01  3.926779E-01  7.445485E-02  0.000000E+00  1.401769E-02 -6.769785E-04 -3.412779E-20 -6.378683E-01  0.000000E+00
  3.682080E-01  7.464203E-02  5.000000E-01  3.719264E-01  7.539667E-02  0.000000E+00  1.443460E-02 -6.023942E-04 -6.816814E-19 -6.718067E-01  0.000000E+00
  3.479570E-01  7.541543E-02  5.000000E-01  3.514709E-01  7.617789E-02  0.000000E+00  1.492861E-02 -5.038504E-04 -5.661862E-19 -7.074695E-01  0.000000E+00
  3.280470E-01  7.600248E-02  5.000000E-01  3.313599E-01  7.677087E-02  0.000000E+00  1.547590E-02 -3.781808E-04 -2.611270E-19 -7.435215E-01  0.000000E+00
  3.085240E-01  7.638460E-02  5.000000E-01  3.116397E-01  7.715685E-02  0.000000E+00  1.605162E-02 -2.279884E-04  4.829689E-19 -7.802325E-01  0.000000E+00
  2.894320E-01  7.655709E-02  5.000000E-01  2.923549E-01  7.733108E-02  0.000000E+00  1.664644E-02 -5.384635E-05  7.355432E-19 -8.185677E-01  0.000000E+00
  2.708110E-01  7.651350E-02  5.000000E-01  2.735458E-01  7.728704E-02  0.000000E+00  1.727279E-02  1.498297E-04 -2.006907E-19 -8.605766E-01  0.000000E+00
  2.526960E-01  7.624415E-02  5.000000E-01  2.552479E-01  7.701498E-02  0.000000E+00  1.797273E-02  3.930318E-04 -1.349225E-18 -9.100434E-01  0.000000E+00
  2.351200E-01  7.573930E-02  5.000000E-01  2.374944E-01  7.650503E-02  0.000000E+00  1.881100E-02  7.051472E-04 -2.230129E-18 -9.658393E-01  0.000000E+00
  2.181120E-01  7.496093E-02  5.000000E-01  2.203147E-01  7.571879E-02  0.000000E+00  1.980744E-02  1.133064E-03 -2.946037E-18 -1.018657E+00  0.000000E+00
  2.017010E-01  7.384586E-02  5.000000E-01  2.037379E-01  7.459247E-02  0.000000E+00  2.088638E-02  1.686724E-03 -2.894853E-18 -1.063825E+00  0.000000E+00
  1.859190E-01  7.237833E-02  5.000000E-01  1.877965E-01  7.311012E-02  0.000000E+00  2.195685E-02  2.342722E-03 -1.475743E-18 -1.103821E+00  0.000000E+00
  1.707920E-01  7.056570E-02  5.000000E-01  1.725168E-01  7.127918E-02  0.000000E+00  2.298423E-02  3.104372E-03 -7.827211E-19 -1.136875E+00  0.000000E+00
  1.563470E-01  6.840417E-02  5.000000E-01  1.579259E-01  6.909582E-02  0.000000E+00  2.394473E-02  3.990562E-03 -1.947189E-18 -1.157020E+00  0.000000E+00
  1.426070E-01  6.588988E-02  5.000000E-01  1.440471E-01  6.655614E-02  0.000000E+00  2.478363E-02  4.994718E-03 -1.547562E-18 -1.159032E+00  0.000000E+00
  1.295900E-01  6.303309E-02  5.000000E-01  1.308987E-01  6.367050E-02  0.000000E+00  2.542691E-02  6.076490E-03 -1.821823E-18 -1.140167E+00  0.000000E+00
  1.173060E-01  5.986334E-02  5.000000E-01  1.184906E-01  6.046874E-02  0.000000E+00  2.581043E-02  7.178891E-03 -1.083471E-18 -1.099795E+00  0.000000E+00
  1.057600E-01  5.642282E-02  5.000000E-01  1.068280E-01  5.699348E-02  0.000000E+00  2.589937E-02  8.244450E-03  1.215549E-18 -1.038925E+00  0.000000E+00
  9.495290E-02  5.276282E-02  5.000000E-01  9.591180E-02  5.329652E-02  0.000000E+00  2.569665E-02  9.220420E-03  1.551437E-18 -9.606164E-01  0.000000E+00
  8.487680E-02  4.894193E-02  5.000000E-01  8.573395E-02  4.943704E-02  0.000000E+00  2.524008E-02  1.007007E-02  4.912341E-18 -8.679435E-01  0.000000E+00
  8.487680E-02  4.894193E-02  5.000000E-01  8.573395E-02  4.943704E-02  0.000000E+00  2.524008E-02  1.007007E-02  4.912341E-18 -8.679435E-01  0.000000E+00
  7.552090E-02  4.502102E-02  5.000000E-01  7.628357E-02  4.547653E-02  0.000000E+00  2.457012E-02  1.076897E-02  1.045972E-17 -7.620473E-01  0.000000E+00
  6.687020E-02  4.105939E-02  5.000000E-01  6.754550E-02  4.147490E-02  0.000000E+00  2.370573E-02  1.127392E-02  1.200285E-17 -6.460018E-01  0.000000E+00
  5.889940E-02  3.712326E-02  5.000000E-01  5.949421E-02  3.749901E-02  0.000000E+00  2.268208E-02  1.153885E-02  1.034327E-17 -5.278441E-01  0.000000E+00
  5.157140E-02  3.328088E-02  5.000000E-01  5.209221E-02  3.361783E-02  0.000000E+00  2.160013E-02  1.158610E-02  7.368697E-18 -4.169044E-01  0.000000E+00
  4.484650E-02  2.958842E-02  5.000000E-01  4.529939E-02  2.988808E-02  0.000000E+00  2.061614E-02  1.154115E-02  6.187193E-18 -3.181657E-01  0.000000E+00
  3.869820E-02  2.607758E-02  5.000000E-01  3.908900E-02  2.634179E-02  0.000000E+00  1.988243E-02  1.158021E-02 -6.656650E-19 -2.307936E-01  0.000000E+00
  3.311550E-02  2.275979E-02  5.000000E-01  3.344993E-02  2.299049E-02  0.000000E+00  1.947036E-02  1.182877E-02 -2.292084E-17 -1.489722E-01  0.000000E+00
  2.809130E-02  1.964171E-02  5.000000E-01  2.837499E-02  1.984092E-02  0.000000E+00  1.921513E-02  1.224054E-02 -6.309624E-17 -5.557899E-02  0.000000E+00
  2.362330E-02  1.672613E-02  5.000000E-01  2.386187E-02  1.689590E-02  0.000000E+00  1.865937E-02  1.241948E-02 -1.406471E-16  6.060236E-02  0.000000E+00
  1.966610E-02  1.403868E-02  5.000000E-01  1.986470E-02  1.418132E-02  0.000000E+00  1.752057E-02  1.183067E-02 -2.254239E-16  1.709758E-01  0.000000E+00
  1.609460E-02  1.163877E-02  5.000000E-01  1.625714E-02  1.175716E-02  0.000000E+00  1.611716E-02  1.057928E-02 -7.825343E-17  2.444233E-01  0.000000E+00
  1.282740E-02  9.547746E-03  5.000000E-01  1.295694E-02  9.645024E-03  0.000000E+00  1.510593E-02  9.435893E-03  9.704384E-16  2.819515E-01  0.000000E+00
  9.860990E-03  7.742821E-03  5.000000E-01  9.960574E-03  7.821872E-03  0.000000E+00  1.502082E-02  9.096227E-03  3.914016E-15  3.021889E-01  0.000000E+00
  7.251350E-03  6.171338E-03  5.000000E-01  7.324580E-03  6.234519E-03  0.000000E+00  1.608040E-02  9.853755E-03  8.482786E-15  3.208177E-01  0.000000E+00
  5.038810E-03  4.794733E-03  5.000000E-01  5.089697E-03  4.844013E-03  0.000000E+00  1.836495E-02  1.188400E-02  8.839780E-15  3.398891E-01  0.000000E+00
  3.239710E-03  3.592569E-03  5.000000E-01  3.272428E-03  3.629709E-03  0.000000E+00  2.192047E-02  1.569295E-02 -1.260351E-14  3.641430E-01  0.000000E+00
  1.861880E-03  2.552800E-03  5.000000E-01  1.880684E-03  2.579439E-03  0.000000E+00  2.614530E-02  2.206313E-02 -8.673825E-14  4.106425E-01  0.000000E+00
  9.013910E-04  1.672334E-03  5.000000E-01  9.104950E-04  1.690081E-03  0.000000E+00  2.832584E-02  3.078338E-02 -2.428572E-13  5.141013E-01  0.000000E+00
  3.295630E-04  9.589613E-04  5.000000E-01  3.328923E-04  9.695043E-04  0.000000E+00  2.373714E-02  3.729664E-02 -4.734160E-13  6.949464E-01  0.000000E+00
  7.194000E-05  4.304650E-04  5.000000E-01  7.266763E-05  4.356709E-04  0.000000E+00  1.259707E-02  3.317444E-02 -7.048713E-13  8.635246E-01  0.000000E+00
  4.516100E-06  1.074460E-04  5.000000E-01  4.562831E-06  1.093899E-04  0.000000E+00  3.130807E-03  2.226778E-02 -8.357350E-13  8.769698E-01  0.000000E+00
 -1.112850E-09 -8.502094E-07  5.000000E-01  0.000000E+00  0.000000E+00  0.000000E+00 -1.362168E-03  2.391459E-02 -8.731677E-13  8.123161E-01  0.000000E+00