 Title = "ADflow Slice Data"
Variables =  "CoordinateX"  "CoordinateY"  "CoordinateZ"  "XoC"  "YoC"  "ZoC" "VelocityX" "VelocityY" "VelocityZ" "CoefPressure" "Mach" 
Zone T= "Slice_0001 None Absolute Regular z = 0.50000000"
 Nodes =          192  Elements=          184  ZONETYPE=FELINESEG
 DATAPACKING=POINT
  5.566560E-01  2.389822E-02  5.000000E-01  5.622776E-01  2.410045E-02  0.000000E+00  7.451337E-03  1.202033E-04  3.446818E-21  2.733589E-01  0.000000E+00
  5.776220E-01  2.415622E-02  5.000000E-01  5.834553E-01  2.436105E-02  0.000000E+00  7.438333E-03  6.137663E-05 -7.686496E-19  2.765053E-01  0.000000E+00
  5.983370E-01  2.424298E-02  5.000000E-01  6.043795E-01  2.444869E-02  0.000000E+00  7.472582E-03  8.822163E-08 -6.404767E-19  2.776038E-01  0.000000E+00
  6.187480E-01  2.415854E-02  5.000000E-01  6.249966E-01  2.436340E-02  0.000000E+00  7.550354E-03 -6.284306E-05 -1.287432E-18  2.767900E-01  0.000000E+00
  6.388030E-01  2.390868E-02  5.000000E-01  6.452541E-01  2.411101E-02  0.000000E+00  7.664562E-03 -1.270414E-04 -1.423936E-18  2.742579E-01  0.000000E+00
  6.584530E-01  2.350395E-02  5.000000E-01  6.651026E-01  2.370220E-02  0.000000E+00  7.802455E-03 -1.897852E-04 -8.698615E-19  2.702558E-01  0.000000E+00
  6.776550E-01  2.296594E-02  5.000000E-01  6.844985E-01  2.315875E-02  0.000000E+00  7.938945E-03 -2.418542E-04 -1.942738E-18  2.641547E-01  0.000000E+00
  6.963720E-01  2.234957E-02  5.000000E-01  7.034045E-01  2.253616E-02  0.000000E+00  8.040200E-03 -2.752599E-04 -1.216433E-18  2.564239E-01  0.000000E+00
  7.145680E-01  2.170361E-02  5.000000E-01  7.217843E-01  2.188368E-02  0.000000E+00  8.082402E-03 -2.912913E-04  1.503455E-18  2.494577E-01  0.000000E+00
  7.322140E-01  2.105884E-02  5.000000E-01  7.396085E-01  2.123239E-02  0.000000E+00  8.060402E-03 -2.956128E-04  2.215611E-18  2.447771E-01  0.000000E+00
  7.492860E-01  2.043084E-02  5.000000E-01  7.568529E-01  2.059805E-02  0.000000E+00  7.983140E-03 -2.937988E-04  1.499147E-18  2.426325E-01  0.000000E+00
  7.657630E-01  1.982408E-02  5.000000E-01  7.734963E-01  1.998516E-02  0.000000E+00  7.867797E-03 -2.905231E-04 -5.772838E-19  2.424826E-01  0.000000E+00
  7.816300E-01  1.923595E-02  5.000000E-01  7.895235E-01  1.939110E-02  0.000000E+00  7.739668E-03 -2.939151E-04 -1.655010E-18  2.439465E-01  0.000000E+00
  7.968740E-01  1.864431E-02  5.000000E-01  8.049215E-01  1.879348E-02  0.000000E+00  7.639464E-03 -3.178318E-04 -1.382376E-18  2.478030E-01  0.000000E+00
  8.114890E-01  1.799592E-02  5.000000E-01  8.196841E-01  1.813854E-02  0.000000E+00  7.607345E-03 -3.668308E-04 -1.462856E-18  2.523093E-01  0.000000E+00
  8.254710E-01  1.726631E-02  5.000000E-01  8.338073E-01  1.740157E-02  0.000000E+00  7.651557E-03 -4.316702E-04 -1.683333E-18  2.539435E-01  0.000000E+00
  8.388180E-01  1.645653E-02  5.000000E-01  8.472891E-01  1.658360E-02  0.000000E+00  7.752702E-03 -5.025407E-04 -1.007952E-18  2.521238E-01  0.000000E+00
  8.515320E-01  1.558053E-02  5.000000E-01  8.601315E-01  1.569876E-02  0.000000E+00  7.888825E-03 -5.736029E-04 -1.368494E-18  2.479887E-01  0.000000E+00
  8.636180E-01  1.465674E-02  5.000000E-01  8.723395E-01  1.476564E-02  0.000000E+00  8.045603E-03 -6.421421E-04 -8.149016E-19  2.424589E-01  0.000000E+00
  8.750810E-01  1.370392E-02  5.000000E-01  8.839183E-01  1.380320E-02  0.000000E+00  8.213958E-03 -7.070344E-04  3.017886E-19  2.359492E-01  0.000000E+00
  8.859290E-01  1.273875E-02  5.000000E-01  8.948758E-01  1.282828E-02  0.000000E+00  8.387568E-03 -7.679817E-04 -3.084645E-19  2.287521E-01  0.000000E+00
  8.961710E-01  1.177500E-02  5.000000E-01  9.052213E-01  1.185480E-02  0.000000E+00  8.562505E-03 -8.250261E-04  1.025892E-18  2.211096E-01  0.000000E+00
  9.058170E-01  1.082425E-02  5.000000E-01  9.149647E-01  1.089445E-02  0.000000E+00  8.736726E-03 -8.783346E-04  1.114187E-18  2.131853E-01  0.000000E+00
  9.148770E-01  9.895900E-03  5.000000E-01  9.241162E-01  9.956723E-03  0.000000E+00  8.909127E-03 -9.280396E-04  5.933809E-20  2.050717E-01  0.000000E+00
  9.148770E-01  9.895900E-03  5.000000E-01  9.241162E-01  9.956723E-03  0.000000E+00  8.909127E-03 -9.280396E-04  5.933809E-20  2.050717E-01  0.000000E+00
  9.233640E-01  8.997668E-03  5.000000E-01  9.326889E-01  9.049419E-03  0.000000E+00  9.079254E-03 -9.744357E-04 -2.264762E-19  1.968723E-01  0.000000E+00
  9.312880E-01  8.135636E-03  5.000000E-01  9.406929E-01  8.178681E-03  0.000000E+00  9.247373E-03 -1.017930E-03 -8.276872E-19  1.886757E-01  0.000000E+00
  9.386620E-01  7.314572E-03  5.000000E-01  9.481414E-01  7.349326E-03  0.000000E+00  9.414035E-03 -1.058882E-03 -9.484724E-19  1.805218E-01  0.000000E+00
  9.454960E-01  6.538260E-03  5.000000E-01  9.550444E-01  6.565174E-03  0.000000E+00  9.579568E-03 -1.097515E-03 -1.635315E-19  1.724249E-01  0.000000E+00
  9.518040E-01  5.809524E-03  5.000000E-01  9.614161E-01  5.829079E-03  0.000000E+00  9.744529E-03 -1.134154E-03 -3.610528E-19  1.644300E-01  0.000000E+00
  9.575950E-01  5.130594E-03  5.000000E-01  9.672656E-01  5.143293E-03  0.000000E+00  9.910543E-03 -1.169240E-03 -1.144181E-19  1.565661E-01  0.000000E+00
  9.628810E-01  4.503087E-03  5.000000E-01  9.726049E-01  4.509449E-03  0.000000E+00  1.008105E-02 -1.203335E-03  3.508134E-19  1.488380E-01  0.000000E+00
  9.676710E-01  3.928225E-03  5.000000E-01  9.774433E-01  3.928781E-03  0.000000E+00  1.026244E-02 -1.237386E-03 -5.121672E-19  1.412779E-01  0.000000E+00
  9.719750E-01  3.406882E-03  5.000000E-01  9.817908E-01  3.402173E-03  0.000000E+00  1.046318E-02 -1.272479E-03 -2.621063E-18  1.339140E-01  0.000000E+00
  9.758020E-01  2.939638E-03  5.000000E-01  9.856564E-01  2.930210E-03  0.000000E+00  1.068620E-02 -1.309107E-03 -4.367628E-18  1.267829E-01  0.000000E+00
  9.791590E-01  2.526940E-03  5.000000E-01  9.890473E-01  2.513344E-03  0.000000E+00  1.090890E-02 -1.344790E-03 -4.545998E-18  1.197895E-01  0.000000E+00
  9.820540E-01  2.169028E-03  5.000000E-01  9.919716E-01  2.151818E-03  0.000000E+00  1.106443E-02 -1.372184E-03  6.034302E-18  1.133240E-01  0.000000E+00
  9.844930E-01  1.866080E-03  5.000000E-01  9.944352E-01  1.845811E-03  0.000000E+00  1.102878E-02 -1.372596E-03  3.459608E-17  1.082738E-01  0.000000E+00
  9.864820E-01  1.618154E-03  5.000000E-01  9.964443E-01  1.595381E-03  0.000000E+00  1.049338E-02 -1.298984E-03  5.381905E-17  1.010454E-01  0.000000E+00
  9.880240E-01  1.425334E-03  5.000000E-01  9.980019E-01  1.400614E-03  0.000000E+00  8.985148E-03 -1.133538E-03 -4.866949E-17  8.612565E-02  0.000000E+00
  9.891220E-01  1.287609E-03  5.000000E-01  9.991109E-01  1.261498E-03  0.000000E+00  8.274808E-03 -1.148362E-03 -5.319297E-16  1.023965E-01  0.000000E+00
  9.897810E-01  1.204961E-03  5.000000E-01  9.997766E-01  1.178015E-03  0.000000E+00  1.536278E-02 -7.555981E-04 -1.557499E-15  1.927763E-01  0.000000E+00
  9.900000E-01  1.177427E-03  5.000000E-01  9.999978E-01  1.150203E-03  0.000000E+00  1.280982E-02 -1.825402E-03 -1.989829E-15 -4.346875E-02  0.000000E+00
  9.900000E-01  1.363647E-03  5.000000E-01  9.999978E-01  1.338304E-03  0.000000E+00  1.182606E-03 -1.356336E-02 -1.227196E-15 -1.824981E-01  0.000000E+00
  9.900000E-01  1.549857E-03  5.000000E-01  9.999978E-01  1.526395E-03  0.000000E+00 -7.217477E-04 -1.436367E-02 -3.028677E-16 -6.536242E-03  0.000000E+00
  9.900000E-01  1.736078E-03  5.000000E-01  9.999978E-01  1.714495E-03  0.000000E+00 -4.409762E-04  2.696923E-03  4.324352E-16 -1.611394E-02  0.000000E+00
  9.900000E-01  1.922298E-03  5.000000E-01  9.999978E-01  1.902596E-03  0.000000E+00  7.649714E-04  2.980523E-03  1.508524E-15 -1.329004E-01  0.000000E+00
  9.900000E-01  2.108518E-03  5.000000E-01  9.999978E-01  2.090697E-03  0.000000E+00  7.676830E-03 -4.522253E-03  2.297354E-15 -3.982980E-02  0.000000E+00
  9.900000E-01  2.108518E-03  5.000000E-01  9.999978E-01  2.090697E-03  0.000000E+00  7.676830E-03 -4.522253E-03  2.297354E-15 -3.982980E-02  0.000000E+00
  9.897920E-01  2.153858E-03  5.000000E-01  9.997877E-01  2.136495E-03  0.000000E+00  8.380891E-03 -2.612332E-03  1.651435E-15  9.517166E-02  0.000000E+00
  9.891660E-01  2.289875E-03  5.000000E-01  9.991554E-01  2.273885E-03  0.000000E+00  2.945989E-03 -5.553600E-04  5.465952E-16  2.680225E-02  0.000000E+00
  9.881230E-01  2.516504E-03  5.000000E-01  9.981019E-01  2.502803E-03  0.000000E+00  2.785509E-03 -6.009059E-04  5.579670E-17  1.457508E-02  0.000000E+00
  9.866580E-01  2.833720E-03  5.000000E-01  9.966221E-01  2.823223E-03  0.000000E+00  3.339872E-03 -7.301116E-04 -4.934844E-17  2.046348E-02  0.000000E+00
  9.847700E-01  3.241387E-03  5.000000E-01  9.947150E-01  3.235007E-03  0.000000E+00  3.493373E-03 -7.526489E-04 -3.470935E-17  1.849731E-02  0.000000E+00
  9.824550E-01  3.739371E-03  5.000000E-01  9.923766E-01  3.738020E-03  0.000000E+00  3.544416E-03 -7.596812E-04 -1.106359E-17  1.304470E-02  0.000000E+00
  9.797070E-01  4.327472E-03  5.000000E-01  9.896009E-01  4.332060E-03  0.000000E+00  3.626096E-03 -7.739029E-04 -1.497411E-18  6.893586E-03  0.000000E+00
  9.765220E-01  5.005411E-03  5.000000E-01  9.863837E-01  5.016845E-03  0.000000E+00  3.749022E-03 -7.953756E-04  1.166236E-19 -2.854057E-04  0.000000E+00
  9.728930E-01  5.772849E-03  5.000000E-01  9.827181E-01  5.792034E-03  0.000000E+00  3.911909E-03 -8.241095E-04  1.025876E-18 -8.612180E-03  0.000000E+00
  9.688130E-01  6.629313E-03  5.000000E-01  9.785969E-01  6.657147E-03  0.000000E+00  4.109879E-03 -8.590027E-04  1.651394E-18 -1.795422E-02  0.000000E+00
  9.642740E-01  7.574231E-03  5.000000E-01  9.740120E-01  7.611607E-03  0.000000E+00  4.334985E-03 -8.981096E-04  6.327844E-19 -2.818231E-02  0.000000E+00
  9.592670E-01  8.606877E-03  5.000000E-01  9.689544E-01  8.654682E-03  0.000000E+00  4.580305E-03 -9.398082E-04  6.138544E-20 -3.926913E-02  0.000000E+00
  9.537850E-01  9.726334E-03  5.000000E-01  9.634171E-01  9.785443E-03  0.000000E+00  4.841222E-03 -9.828220E-04  3.071989E-21 -5.110399E-02  0.000000E+00
  9.478160E-01  1.093144E-02  5.000000E-01  9.573878E-01  1.100272E-02  0.000000E+00  5.114391E-03 -1.026208E-03 -7.620850E-20 -6.363245E-02  0.000000E+00
  9.413520E-01  1.222089E-02  5.000000E-01  9.508585E-01  1.230520E-02  0.000000E+00  5.397750E-03 -1.069319E-03 -9.526339E-19 -7.679989E-02  0.000000E+00
  9.343800E-01  1.359306E-02  5.000000E-01  9.438161E-01  1.369122E-02  0.000000E+00  5.689688E-03 -1.111588E-03 -2.162855E-18 -9.052251E-02  0.000000E+00
  9.268920E-01  1.504576E-02  5.000000E-01  9.362525E-01  1.515859E-02  0.000000E+00  5.988842E-03 -1.152507E-03 -9.207261E-19 -1.047609E-01  0.000000E+00
  9.188750E-01  1.657673E-02  5.000000E-01  9.281545E-01  1.670502E-02  0.000000E+00  6.294100E-03 -1.191553E-03  2.385157E-19 -1.194293E-01  0.000000E+00
  9.103190E-01  1.818304E-02  5.000000E-01  9.195121E-01  1.832755E-02  0.000000E+00  6.604359E-03 -1.228255E-03  5.189950E-19 -1.344810E-01  0.000000E+00
  9.012130E-01  1.986126E-02  5.000000E-01  9.103142E-01  2.002272E-02  0.000000E+00  6.918641E-03 -1.262032E-03  1.512698E-19 -1.498233E-01  0.000000E+00
  8.915460E-01  2.160718E-02  5.000000E-01  9.005495E-01  2.178628E-02  0.000000E+00  7.235853E-03 -1.292336E-03 -1.740150E-19 -1.653943E-01  0.000000E+00
  8.813080E-01  2.341605E-02  5.000000E-01  8.902082E-01  2.361341E-02  0.000000E+00  7.554805E-03 -1.318571E-03 -2.472682E-19 -1.810911E-01  0.000000E+00
  8.704900E-01  2.528193E-02  5.000000E-01  8.792809E-01  2.549813E-02  0.000000E+00  7.873508E-03 -1.339984E-03 -6.329829E-19 -1.967456E-01  0.000000E+00
  8.704900E-01  2.528193E-02  5.000000E-01  8.792809E-01  2.549813E-02  0.000000E+00  7.873508E-03 -1.339984E-03 -6.329829E-19 -1.967456E-01  0.000000E+00
  8.590830E-01  2.719818E-02  5.000000E-01  8.677587E-01  2.743373E-02  0.000000E+00  8.189266E-03 -1.356002E-03 -1.104751E-18 -2.122699E-01  0.000000E+00
  8.470810E-01  2.915763E-02  5.000000E-01  8.556355E-01  2.941298E-02  0.000000E+00  8.499609E-03 -1.366142E-03 -7.886045E-19 -2.275769E-01  0.000000E+00
  8.344780E-01  3.115247E-02  5.000000E-01  8.429052E-01  3.142796E-02  0.000000E+00  8.801566E-03 -1.369809E-03 -4.559329E-20 -2.424263E-01  0.000000E+00
  8.212700E-01  3.317425E-02  5.000000E-01  8.295638E-01  3.347016E-02  0.000000E+00  9.089903E-03 -1.366554E-03 -1.982773E-19 -2.564402E-01  0.000000E+00
  8.074550E-01  3.521479E-02  5.000000E-01  8.156093E-01  3.553130E-02  0.000000E+00  9.357226E-03 -1.356758E-03 -7.265591E-19 -2.693588E-01  0.000000E+00
  7.930350E-01  3.726779E-02  5.000000E-01  8.010437E-01  3.760503E-02  0.000000E+00  9.598354E-03 -1.342307E-03 -1.327185E-18 -2.815422E-01  0.000000E+00
  7.780130E-01  3.933109E-02  5.000000E-01  7.858700E-01  3.968918E-02  0.000000E+00  9.816028E-03 -1.325407E-03 -1.611639E-18 -2.937696E-01  0.000000E+00
  7.623950E-01  4.140399E-02  5.000000E-01  7.700943E-01  4.178300E-02  0.000000E+00  1.001770E-02 -1.304978E-03 -9.936518E-19 -3.058713E-01  0.000000E+00
  7.461930E-01  4.347563E-02  5.000000E-01  7.537287E-01  4.387556E-02  0.000000E+00  1.020410E-02 -1.278525E-03 -2.288573E-19 -3.170413E-01  0.000000E+00
  7.294180E-01  4.553505E-02  5.000000E-01  7.367842E-01  4.595579E-02  0.000000E+00  1.036641E-02 -1.246748E-03  3.572049E-20 -3.268016E-01  0.000000E+00
  7.120900E-01  4.757671E-02  5.000000E-01  7.192813E-01  4.801806E-02  0.000000E+00  1.049176E-02 -1.212787E-03 -1.263737E-18 -3.346412E-01  0.000000E+00
  6.942280E-01  4.960296E-02  5.000000E-01  7.012389E-01  5.006477E-02  0.000000E+00  1.056968E-02 -1.182047E-03 -2.542934E-18 -3.409130E-01  0.000000E+00
  6.758590E-01  5.162811E-02  5.000000E-01  6.826844E-01  5.211038E-02  0.000000E+00  1.060623E-02 -1.162273E-03 -9.622342E-19 -3.480743E-01  0.000000E+00
  6.570120E-01  5.367954E-02  5.000000E-01  6.636470E-01  5.418252E-02  0.000000E+00  1.063542E-02 -1.157901E-03  6.709658E-19 -3.591463E-01  0.000000E+00
  6.377220E-01  5.577958E-02  5.000000E-01  6.441622E-01  5.630377E-02  0.000000E+00  1.070525E-02 -1.162684E-03  2.037341E-18 -3.743690E-01  0.000000E+00
  6.180260E-01  5.791402E-02  5.000000E-01  6.242673E-01  5.845977E-02  0.000000E+00  1.084843E-02 -1.167661E-03  1.804030E-18 -3.929634E-01  0.000000E+00
  5.979670E-01  6.005776E-02  5.000000E-01  6.040058E-01  6.062516E-02  0.000000E+00  1.107637E-02 -1.168655E-03 -2.072371E-19 -4.150175E-01  0.000000E+00
  5.775910E-01  6.217953E-02  5.000000E-01  5.834240E-01  6.276836E-02  0.000000E+00  1.138476E-02 -1.160630E-03 -5.610489E-19 -4.392174E-01  0.000000E+00
  5.569470E-01  6.424101E-02  5.000000E-01  5.625715E-01  6.485065E-02  0.000000E+00  1.174700E-02 -1.136416E-03  5.494001E-19 -4.624614E-01  0.000000E+00
  5.360860E-01  6.619725E-02  5.000000E-01  5.414998E-01  6.682665E-02  0.000000E+00  1.211682E-02 -1.096130E-03  1.022223E-18 -4.832836E-01  0.000000E+00
  5.150640E-01  6.803120E-02  5.000000E-01  5.202655E-01  6.867912E-02  0.000000E+00  1.245471E-02 -1.048431E-03  1.624203E-19 -5.027909E-01  0.000000E+00
  4.939370E-01  6.974660E-02  5.000000E-01  4.989252E-01  7.041184E-02  0.000000E+00  1.274783E-02 -9.992343E-04  1.698049E-19 -5.218419E-01  0.000000E+00
  4.727610E-01  7.134854E-02  5.000000E-01  4.775353E-01  7.202996E-02  0.000000E+00  1.300499E-02 -9.507796E-04 -6.977907E-20 -5.414705E-01  0.000000E+00
  5.770140E-06 -7.341460E-05  5.000000E-01  5.829536E-06 -1.132705E-04  0.000000E+00  3.366041E-03 -1.952054E-02 -5.247118E-13  9.177358E-01  0.000000E+00
  9.104010E-05 -4.053302E-04  5.000000E-01  9.196062E-05 -4.485380E-04  0.000000E+00  1.856410E-02 -3.253433E-02 -4.513436E-13  9.288584E-01  0.000000E+00
  4.796980E-04 -9.210307E-04  5.000000E-01  4.845435E-04 -9.694465E-04  0.000000E+00  3.636232E-02 -3.290959E-02 -3.000410E-13  6.359634E-01  0.000000E+00
  1.456590E-03 -1.522558E-03  5.000000E-01  1.471301E-03 -1.577048E-03  0.000000E+00  4.009403E-02 -2.007962E-02 -1.447208E-13  3.165828E-01  0.000000E+00
  3.096410E-03 -2.112011E-03  5.000000E-01  3.127681E-03 -2.172454E-03  0.000000E+00  3.349794E-02 -1.042303E-02 -4.430134E-14  1.992085E-01  0.000000E+00
  5.335170E-03 -2.667721E-03  5.000000E-01  5.389050E-03 -2.733776E-03  0.000000E+00  2.722574E-02 -5.955368E-03 -1.768585E-15  1.743948E-01  0.000000E+00
  8.129670E-03 -3.183737E-03  5.000000E-01  8.211771E-03 -3.255004E-03  0.000000E+00  2.330739E-02 -3.791064E-03  7.454956E-15  1.465235E-01  0.000000E+00
  1.145600E-02 -3.641961E-03  5.000000E-01  1.157169E-02 -3.717855E-03  0.000000E+00  2.028494E-02 -2.310590E-03  5.172744E-15  1.057325E-01  0.000000E+00
  1.529970E-02 -3.974793E-03  5.000000E-01  1.545421E-02 -4.054048E-03  0.000000E+00  1.699161E-02 -1.013301E-03  1.916127E-15  6.244778E-02  0.000000E+00
  1.962420E-02 -4.087594E-03  5.000000E-01  1.982238E-02 -4.167988E-03  0.000000E+00  1.349375E-02 -1.089508E-04  2.864418E-16  4.898647E-02  0.000000E+00
  2.439810E-02 -4.001221E-03  5.000000E-01  2.464449E-02 -4.080743E-03  0.000000E+00  1.109343E-02  1.939442E-04 -1.367340E-16  9.760010E-02  0.000000E+00
  2.966100E-02 -3.909532E-03  5.000000E-01  2.996054E-02 -3.988128E-03  0.000000E+00  1.063959E-02  1.357591E-04 -1.191890E-16  1.598796E-01  0.000000E+00
  3.543640E-02 -3.877287E-03  5.000000E-01  3.579427E-02 -3.955557E-03  0.000000E+00  1.136915E-02  2.632960E-05 -4.311086E-17  1.750194E-01  0.000000E+00
  4.172970E-02 -3.884857E-03  5.000000E-01  4.215112E-02 -3.963204E-03  0.000000E+00  1.213342E-02 -1.642704E-05 -4.454596E-18  1.577403E-01  0.000000E+00
  4.854440E-02 -3.892343E-03  5.000000E-01  4.903464E-02 -3.970766E-03  0.000000E+00  1.246489E-02  3.308398E-05  3.885583E-18  1.353444E-01  0.000000E+00
  5.588220E-02 -3.843754E-03  5.000000E-01  5.644654E-02 -3.921686E-03  0.000000E+00  1.242305E-02  1.362603E-04  2.465948E-18  1.198291E-01  0.000000E+00
  6.375220E-02 -3.720840E-03  5.000000E-01  6.439602E-02 -3.797530E-03  0.000000E+00  1.224253E-02  2.300347E-04  7.338636E-19  1.146164E-01  0.000000E+00
  7.217040E-02 -3.534891E-03  5.000000E-01  7.289924E-02 -3.609704E-03  0.000000E+00  1.211296E-02  2.887274E-04 -2.115747E-19  1.151494E-01  0.000000E+00
  8.115500E-02 -3.305708E-03  5.000000E-01  8.197457E-02 -3.378206E-03  0.000000E+00  1.208458E-02  3.263932E-04 -3.977344E-19  1.146770E-01  0.000000E+00
  9.072040E-02 -3.034387E-03  5.000000E-01  9.163657E-02 -3.104145E-03  0.000000E+00  1.210370E-02  3.668402E-04  2.284024E-19  1.099561E-01  0.000000E+00
  1.008780E-01 -2.706951E-03  5.000000E-01  1.018967E-01 -2.773403E-03  0.000000E+00  1.210557E-02  4.195521E-04  2.227608E-18  1.031546E-01  0.000000E+00
  1.116380E-01 -2.307421E-03  5.000000E-01  1.127654E-01 -2.369837E-03  0.000000E+00  1.205558E-02  4.850637E-04  1.825943E-18  9.687907E-02  0.000000E+00
  1.230100E-01 -1.814242E-03  5.000000E-01  1.242523E-01 -1.871678E-03  0.000000E+00  1.193053E-02  5.628232E-04 -2.650052E-19  9.198753E-02  0.000000E+00
  1.350030E-01 -1.202239E-03  5.000000E-01  1.363664E-01 -1.253495E-03  0.000000E+00  1.170516E-02  6.500225E-04  1.416763E-18  8.922621E-02  0.000000E+00
  1.350030E-01 -1.202239E-03  5.000000E-01  1.363664E-01 -1.253495E-03  0.000000E+00  1.170516E-02  6.500225E-04  1.416763E-18  8.922621E-02  0.000000E+00
  1.476220E-01 -4.432808E-04  5.000000E-01  1.491128E-01 -4.868719E-04  0.000000E+00  1.135991E-02  7.412013E-04  2.404504E-18  8.974590E-02  0.000000E+00
  1.608730E-01  4.915812E-04  5.000000E-01  1.624976E-01  4.574311E-04  0.000000E+00  1.089476E-02  8.284409E-04  1.122313E-18  9.489464E-02  0.000000E+00
  1.747560E-01  1.627502E-03  5.000000E-01  1.765208E-01  1.604824E-03  0.000000E+00  1.033779E-02  9.010984E-04 -3.928785E-19  1.056241E-01  0.000000E+00
  1.892730E-01  2.974831E-03  5.000000E-01  1.911844E-01  2.965759E-03  0.000000E+00  9.745477E-03  9.444020E-04 -5.240609E-19  1.221987E-01  0.000000E+00
  2.044180E-01  4.510333E-03  5.000000E-01  2.064824E-01  4.516768E-03  0.000000E+00  9.202508E-03  9.425238E-04  6.036954E-19  1.454942E-01  0.000000E+00
  2.201880E-01  6.144618E-03  5.000000E-01  2.224116E-01  6.167556E-03  0.000000E+00  8.781558E-03  8.997647E-04  5.513923E-19  1.720117E-01  0.000000E+00
  2.365750E-01  7.800717E-03  5.000000E-01  2.389641E-01  7.840381E-03  0.000000E+00  8.488690E-03  8.394530E-04 -8.019703E-20  1.943033E-01  0.000000E+00
  2.535710E-01  9.441142E-03  5.000000E-01  2.561318E-01  9.497372E-03  0.000000E+00  8.287889E-03  7.756071E-04 -5.297178E-19  2.106842E-01  0.000000E+00
  2.711570E-01  1.103481E-02  5.000000E-01  2.738954E-01  1.110714E-02  0.000000E+00  8.155702E-03  7.101384E-04 -6.259566E-19  2.236935E-01  0.000000E+00
  2.893100E-01  1.255116E-02  5.000000E-01  2.922317E-01  1.263880E-02  0.000000E+00  8.089254E-03  6.424339E-04 -8.472099E-19  2.346102E-01  0.000000E+00
  3.080020E-01  1.395834E-02  5.000000E-01  3.111125E-01  1.406019E-02  0.000000E+00  8.085906E-03  5.733069E-04  1.761736E-19  2.429026E-01  0.000000E+00
  3.271950E-01  1.523504E-02  5.000000E-01  3.304993E-01  1.534978E-02  0.000000E+00  8.132354E-03  5.050443E-04  7.616201E-19  2.480843E-01  0.000000E+00
  3.468470E-01  1.636912E-02  5.000000E-01  3.503497E-01  1.649531E-02  0.000000E+00  8.204586E-03  4.423399E-04 -7.283986E-19  2.500758E-01  0.000000E+00
  3.669110E-01  1.737465E-02  5.000000E-01  3.706164E-01  1.751100E-02  0.000000E+00  8.271287E-03  3.907780E-04 -9.919435E-19  2.491933E-01  0.000000E+00
  3.873360E-01  1.828121E-02  5.000000E-01  3.912476E-01  1.842671E-02  0.000000E+00  8.303921E-03  3.523675E-04 -7.556448E-20  2.469589E-01  0.000000E+00
  4.080670E-01  1.912109E-02  5.000000E-01  4.121880E-01  1.927507E-02  0.000000E+00  8.285196E-03  3.262566E-04 -5.990286E-19  2.450922E-01  0.000000E+00
  4.290470E-01  1.992323E-02  5.000000E-01  4.333799E-01  2.008532E-02  0.000000E+00  8.208412E-03  3.107234E-04 -2.275271E-18  2.443007E-01  0.000000E+00
  4.502140E-01  2.071612E-02  5.000000E-01  4.547606E-01  2.088622E-02  0.000000E+00  8.078993E-03  2.997814E-04 -2.232132E-18  2.453762E-01  0.000000E+00
  4.715070E-01  2.149982E-02  5.000000E-01  4.762687E-01  2.167783E-02  0.000000E+00  7.919167E-03  2.836331E-04  9.818038E-19  2.494605E-01  0.000000E+00
  4.928620E-01  2.224374E-02  5.000000E-01  4.978393E-01  2.242926E-02  0.000000E+00  7.758060E-03  2.572027E-04  1.998327E-18  2.557346E-01  0.000000E+00
  5.142140E-01  2.291435E-02  5.000000E-01  5.194069E-01  2.310664E-02  0.000000E+00  7.617780E-03  2.204588E-04 -5.415026E-19  2.623702E-01  0.000000E+00
  5.355000E-01  2.347669E-02  5.000000E-01  5.409079E-01  2.367466E-02  0.000000E+00  7.512457E-03  1.742099E-04 -5.447968E-19  2.684308E-01  0.000000E+00
  5.566560E-01  2.389822E-02  5.000000E-01  5.622776E-01  2.410045E-02  0.000000E+00  7.451337E-03  1.202033E-04  3.446818E-21  2.733589E-01  0.000000E+00
  4.727610E-01  7.134854E-02  5.000000E-01  4.775353E-01  7.202996E-02  0.000000E+00  1.300499E-02 -9.507796E-04 -6.977907E-20 -5.414705E-01  0.000000E+00
  4.515970E-01  7.284261E-02  5.000000E-01  4.561576E-01  7.353912E-02  0.000000E+00  1.325186E-02 -9.047911E-04 -5.236628E-19 -5.637113E-01  0.000000E+00
  4.305020E-01  7.423415E-02  5.000000E-01  4.348496E-01  7.494471E-02  0.000000E+00  1.352631E-02 -8.584200E-04 -1.139034E-18 -5.898249E-01  0.000000E+00
  4.095340E-01  7.551333E-02  5.000000E-01  4.136698E-01  7.623681E-02  0.000000E+00  1.386238E-02 -8.033349E-04 -1.513161E-18 -6.195649E-01  0.000000E+00
  3.887520E-01  7.665552E-02  5.000000E-01  3.926779E-01  7.739053E-02  0.000000E+00  1.427737E-02 -7.318962E-04 -1.787867E-19 -6.525997E-01  0.000000E+00
  3.682080E-01  7.763440E-02  5.000000E-01  3.719265E-01  7.837930E-02  0.000000E+00  1.477277E-02 -6.377402E-04  1.225048E-19 -6.881475E-01  0.000000E+00
  3.479570E-01  7.842113E-02  5.000000E-01  3.514709E-01  7.917398E-02  0.000000E+00  1.533373E-02 -5.138970E-04  5.642393E-19 -7.240511E-01  0.000000E+00
  3.280470E-01  7.898684E-02  5.000000E-01  3.313599E-01  7.974540E-02  0.000000E+00  1.592803E-02 -3.581473E-04  1.984695E-18 -7.584717E-01  0.000000E+00
  3.085240E-01  7.931452E-02  5.000000E-01  3.116397E-01  8.007639E-02  0.000000E+00  1.652150E-02 -1.772006E-04  1.387652E-18 -7.919224E-01  0.000000E+00
  2.894320E-01  7.940770E-02  5.000000E-01  2.923549E-01  8.017051E-02  0.000000E+00  1.710116E-02  2.395582E-05  2.375033E-21 -8.258256E-01  0.000000E+00
  2.708110E-01  7.926891E-02  5.000000E-01  2.735459E-01  8.003032E-02  0.000000E+00  1.768140E-02  2.487896E-04  3.674010E-19 -8.622705E-01  0.000000E+00
  2.526960E-01  7.889676E-02  5.000000E-01  2.552479E-01  7.965441E-02  0.000000E+00  1.830695E-02  5.058570E-04  7.448360E-20 -9.053023E-01  0.000000E+00
  2.351200E-01  7.828878E-02  5.000000E-01  2.374944E-01  7.904029E-02  0.000000E+00  1.904917E-02  8.227330E-04 -2.147075E-18 -9.552441E-01  0.000000E+00
  2.181120E-01  7.741444E-02  5.000000E-01  2.203147E-01  7.815712E-02  0.000000E+00  1.994956E-02  1.246056E-03 -3.178150E-18 -1.005233E+00  0.000000E+00
  2.017010E-01  7.621752E-02  5.000000E-01  2.037379E-01  7.694811E-02  0.000000E+00  2.096810E-02  1.798030E-03 -2.351241E-18 -1.050205E+00  0.000000E+00
  1.859190E-01  7.467116E-02  5.000000E-01  1.877966E-01  7.538614E-02  0.000000E+00  2.202840E-02  2.473386E-03 -1.032633E-18 -1.089079E+00  0.000000E+00
  1.707920E-01  7.276611E-02  5.000000E-01  1.725168E-01  7.346185E-02  0.000000E+00  2.306804E-02  3.274310E-03 -4.792988E-19 -1.118178E+00  0.000000E+00
  1.563470E-01  7.049488E-02  5.000000E-01  1.579259E-01  7.116768E-02  0.000000E+00  2.402210E-02  4.202370E-03 -2.751005E-19 -1.131791E+00  0.000000E+00
  1.426070E-01  6.785757E-02  5.000000E-01  1.440472E-01  6.850373E-02  0.000000E+00  2.481052E-02  5.234387E-03 -4.138443E-19 -1.125480E+00  0.000000E+00
  1.295900E-01  6.487100E-02  5.000000E-01  1.308987E-01  6.548701E-02  0.000000E+00  2.535604E-02  6.319434E-03 -3.166458E-18 -1.097611E+00  0.000000E+00
  1.173060E-01  6.157087E-02  5.000000E-01  1.184907E-01  6.215355E-02  0.000000E+00  2.560957E-02  7.397400E-03 -4.243043E-18 -1.048636E+00  0.000000E+00
  1.057600E-01  5.800423E-02  5.000000E-01  1.068281E-01  5.855089E-02  0.000000E+00  2.555939E-02  8.414644E-03 -2.064094E-18 -9.803512E-01  0.000000E+00
  9.495290E-02  5.422564E-02  5.000000E-01  9.591181E-02  5.473414E-02  0.000000E+00  2.522957E-02  9.327127E-03 -1.228559E-18 -8.962010E-01  0.000000E+00
  8.487680E-02  5.029523E-02  5.000000E-01  8.573396E-02  5.076404E-02  0.000000E+00  2.467186E-02  1.010843E-02  2.964078E-18 -7.993929E-01  0.000000E+00
  8.487680E-02  5.029523E-02  5.000000E-01  8.573396E-02  5.076404E-02  0.000000E+00  2.467186E-02  1.010843E-02  2.964078E-18 -7.993929E-01  0.000000E+00
  7.552090E-02  4.627422E-02  5.000000E-01  7.628357E-02  4.670242E-02  0.000000E+00  2.393461E-02  1.074400E-02  7.716200E-18 -6.911058E-01  0.000000E+00
  6.687020E-02  4.222135E-02  5.000000E-01  6.754551E-02  4.260862E-02  0.000000E+00  2.304162E-02  1.120089E-02  9.651461E-18 -5.741260E-01  0.000000E+00
  5.889940E-02  3.820107E-02  5.000000E-01  5.949421E-02  3.854774E-02  0.000000E+00  2.202799E-02  1.144194E-02  9.934227E-18 -4.557094E-01  0.000000E+00
  5.157140E-02  3.427910E-02  5.000000E-01  5.209221E-02  3.458617E-02  0.000000E+00  2.098601E-02  1.149131E-02  7.315012E-18 -3.442220E-01  0.000000E+00
  4.484650E-02  3.050936E-02  5.000000E-01  4.529940E-02  3.077835E-02  0.000000E+00  2.005514E-02  1.146630E-02  5.902470E-18 -2.439688E-01  0.000000E+00
  3.869820E-02  2.692261E-02  5.000000E-01  3.908901E-02  2.715538E-02  0.000000E+00  1.936815E-02  1.152946E-02 -1.984519E-18 -1.539767E-01  0.000000E+00
  3.311550E-02  2.353047E-02  5.000000E-01  3.344993E-02  2.372899E-02  0.000000E+00  1.898499E-02  1.179685E-02 -2.026744E-17 -6.902827E-02  0.000000E+00
  2.809130E-02  2.034007E-02  5.000000E-01  2.837499E-02  2.050637E-02  0.000000E+00  1.875930E-02  1.223072E-02 -4.828871E-17  2.625786E-02  0.000000E+00
  2.362330E-02  1.735496E-02  5.000000E-01  2.386187E-02  1.749111E-02  0.000000E+00  1.829621E-02  1.247734E-02 -9.966514E-17  1.420188E-01  0.000000E+00
  1.966610E-02  1.459970E-02  5.000000E-01  1.986471E-02  1.470802E-02  0.000000E+00  1.737897E-02  1.205418E-02 -1.626400E-16  2.522591E-01  0.000000E+00
  1.609460E-02  1.212963E-02  5.000000E-01  1.625714E-02  1.221301E-02  0.000000E+00  1.632857E-02  1.105974E-02 -9.706164E-17  3.297013E-01  0.000000E+00
  1.282740E-02  9.964817E-03  5.000000E-01  1.295694E-02  1.002633E-02  0.000000E+00  1.572647E-02  1.019742E-02  5.318793E-16  3.770354E-01  0.000000E+00
  9.860990E-03  8.084742E-03  5.000000E-01  9.960575E-03  8.127274E-03  0.000000E+00  1.598635E-02  1.010391E-02  2.426653E-15  4.123078E-01  0.000000E+00
  7.251350E-03  6.441338E-03  5.000000E-01  7.324581E-03  6.467274E-03  0.000000E+00  1.720076E-02  1.103192E-02  5.603652E-15  4.500329E-01  0.000000E+00
  5.038810E-03  4.999565E-03  5.000000E-01  5.089697E-03  5.010941E-03  0.000000E+00  1.927819E-02  1.305632E-02  6.634284E-15  4.927517E-01  0.000000E+00
  3.239710E-03  3.741301E-03  5.000000E-01  3.272428E-03  3.739969E-03  0.000000E+00  2.189501E-02  1.635075E-02 -5.582259E-15  5.470943E-01  0.000000E+00
  1.861880E-03  2.656396E-03  5.000000E-01  1.880684E-03  2.644108E-03  0.000000E+00  2.380923E-02  2.078090E-02 -5.147335E-14  6.300748E-01  0.000000E+00
  9.013910E-04  1.743157E-03  5.000000E-01  9.104951E-04  1.721646E-03  0.000000E+00  2.199556E-02  2.424509E-02 -1.515043E-13  7.641886E-01  0.000000E+00
  3.295630E-04  1.009725E-03  5.000000E-01  3.328923E-04  9.808080E-04  0.000000E+00  1.355726E-02  2.017716E-02 -3.018116E-13  9.345239E-01  0.000000E+00
  7.194000E-05  4.721924E-04  5.000000E-01  7.266763E-05  4.378466E-04  0.000000E+00  2.758473E-03  1.825356E-03 -4.512804E-13  1.021546E+00  0.000000E+00
  4.516100E-06  1.470320E-04  5.000000E-01  4.562831E-06  1.094023E-04  0.000000E+00 -2.009069E-03 -1.936478E-02 -5.269986E-13  9.314853E-01  0.000000E+00
 -1.112850E-09  3.872341E-05  5.000000E-01  0.000000E+00  0.000000E+00  0.000000E+00 -1.270674E-03 -2.022467E-02 -5.363557E-13  8.363170E-01  0.000000E+00