 Title = "ADflow Slice Data"
Variables =  "CoordinateX"  "CoordinateY"  "CoordinateZ"  "XoC"  "YoC"  "ZoC" "VelocityX" "VelocityY" "VelocityZ" "CoefPressure" "Mach" 
Zone T= "Slice_0001 None Absolute Regular z = 0.50000000"
 Nodes =          192  Elements=          184  ZONETYPE=FELINESEG
 DATAPACKING=POINT
  5.566560E-01  1.809892E-02  5.000000E-01  5.622774E-01  1.829821E-02  0.000000E+00  7.930553E-03  2.048981E-04 -7.410324E-20  2.319786E-01  0.000000E+00
  5.776220E-01  1.862158E-02  5.000000E-01  5.834551E-01  1.882615E-02  0.000000E+00  7.805071E-03  1.808969E-04  2.910229E-19  2.373644E-01  0.000000E+00
  5.983370E-01  1.906527E-02  5.000000E-01  6.043793E-01  1.927432E-02  0.000000E+00  7.729722E-03  1.469843E-04  6.818368E-19  2.428340E-01  0.000000E+00
  6.187480E-01  1.940331E-02  5.000000E-01  6.249965E-01  1.961578E-02  0.000000E+00  7.715491E-03  1.054564E-04  2.458445E-19  2.467912E-01  0.000000E+00
  6.388030E-01  1.961897E-02  5.000000E-01  6.452540E-01  1.983362E-02  0.000000E+00  7.757003E-03  5.834934E-05 -4.346093E-19  2.487492E-01  0.000000E+00
  6.584530E-01  1.970473E-02  5.000000E-01  6.651024E-01  1.992023E-02  0.000000E+00  7.833915E-03  1.093614E-05 -9.278005E-19  2.490469E-01  0.000000E+00
  6.776550E-01  1.967402E-02  5.000000E-01  6.844983E-01  1.988922E-02  0.000000E+00  7.901151E-03 -2.112308E-05 -6.412123E-19  2.465076E-01  0.000000E+00
  6.963720E-01  1.960194E-02  5.000000E-01  7.034043E-01  1.981641E-02  0.000000E+00  7.895529E-03 -2.528253E-05 -4.565451E-20  2.417882E-01  0.000000E+00
  7.145680E-01  1.955645E-02  5.000000E-01  7.217841E-01  1.977046E-02  0.000000E+00  7.771179E-03 -5.996078E-06 -3.091241E-19  2.390674E-01  0.000000E+00
  7.322140E-01  1.957552E-02  5.000000E-01  7.396083E-01  1.978972E-02  0.000000E+00  7.518268E-03  2.474111E-05 -1.680267E-19  2.410979E-01  0.000000E+00
  7.492860E-01  1.967211E-02  5.000000E-01  7.568527E-01  1.988729E-02  0.000000E+00  7.156807E-03  5.660959E-05 -3.010473E-20  2.482612E-01  0.000000E+00
  7.657630E-01  1.984144E-02  5.000000E-01  7.734961E-01  2.005833E-02  0.000000E+00  6.724977E-03  8.252228E-05 -4.190186E-19  2.592094E-01  0.000000E+00
  7.816300E-01  2.006836E-02  5.000000E-01  7.895233E-01  2.028754E-02  0.000000E+00  6.278754E-03  8.989468E-05  7.457847E-21  2.731172E-01  0.000000E+00
  7.968740E-01  2.029079E-02  5.000000E-01  8.049213E-01  2.051222E-02  0.000000E+00  5.907935E-03  5.874454E-05  5.580923E-19  2.918869E-01  0.000000E+00
  8.114890E-01  2.036707E-02  5.000000E-01  8.196839E-01  2.058926E-02  0.000000E+00  5.699286E-03 -1.318215E-05  4.824085E-19  3.116805E-01  0.000000E+00
  8.254710E-01  2.022268E-02  5.000000E-01  8.338071E-01  2.044342E-02  0.000000E+00  5.666788E-03 -1.090303E-04 -3.389604E-19  3.248265E-01  0.000000E+00
  8.388180E-01  1.984554E-02  5.000000E-01  8.472888E-01  2.006247E-02  0.000000E+00  5.764584E-03 -2.156348E-04 -1.671046E-18  3.303826E-01  0.000000E+00
  8.515320E-01  1.925699E-02  5.000000E-01  8.601312E-01  1.946798E-02  0.000000E+00  5.944969E-03 -3.267544E-04 -2.133398E-18  3.309687E-01  0.000000E+00
  8.636180E-01  1.849213E-02  5.000000E-01  8.723393E-01  1.869540E-02  0.000000E+00  6.178686E-03 -4.397700E-04 -1.554536E-18  3.284117E-01  0.000000E+00
  8.750810E-01  1.758947E-02  5.000000E-01  8.839180E-01  1.778361E-02  0.000000E+00  6.447085E-03 -5.531908E-04 -1.110731E-18  3.233978E-01  0.000000E+00
  8.859290E-01  1.658526E-02  5.000000E-01  8.948756E-01  1.676926E-02  0.000000E+00  6.735920E-03 -6.658170E-04  3.575855E-20  3.164045E-01  0.000000E+00
  8.961710E-01  1.551134E-02  5.000000E-01  9.052210E-01  1.568451E-02  0.000000E+00  7.035305E-03 -7.766682E-04  1.069166E-18  3.079271E-01  0.000000E+00
  9.058170E-01  1.439523E-02  5.000000E-01  9.149644E-01  1.455712E-02  0.000000E+00  7.339548E-03 -8.851072E-04 -2.446767E-20  2.983317E-01  0.000000E+00
  9.148770E-01  1.326011E-02  5.000000E-01  9.241159E-01  1.341054E-02  0.000000E+00  7.645514E-03 -9.906730E-04 -8.158163E-19  2.878521E-01  0.000000E+00
  9.148770E-01  1.326011E-02  5.000000E-01  9.241159E-01  1.341054E-02  0.000000E+00  7.645514E-03 -9.906730E-04 -8.158163E-19  2.878521E-01  0.000000E+00
  9.233640E-01  1.212541E-02  5.000000E-01  9.326886E-01  1.226437E-02  0.000000E+00  7.951666E-03 -1.093197E-03  2.059342E-19  2.767064E-01  0.000000E+00
  9.312880E-01  1.100715E-02  5.000000E-01  9.406927E-01  1.113483E-02  0.000000E+00  8.257776E-03 -1.192767E-03  7.871305E-19  2.650771E-01  0.000000E+00
  9.386620E-01  9.918418E-03  5.000000E-01  9.481411E-01  1.003510E-02  0.000000E+00  8.564271E-03 -1.289562E-03 -6.686206E-21  2.530807E-01  0.000000E+00
  9.454960E-01  8.870029E-03  5.000000E-01  9.550441E-01  8.976123E-03  0.000000E+00  8.871651E-03 -1.383710E-03 -5.354516E-19  2.407994E-01  0.000000E+00
  9.518040E-01  7.870533E-03  5.000000E-01  9.614158E-01  7.966533E-03  0.000000E+00  9.180906E-03 -1.475519E-03  1.088671E-18  2.283334E-01  0.000000E+00
  9.575950E-01  6.927104E-03  5.000000E-01  9.672653E-01  7.013578E-03  0.000000E+00  9.494269E-03 -1.565525E-03  2.725650E-18  2.157515E-01  0.000000E+00
  9.628810E-01  6.045330E-03  5.000000E-01  9.726047E-01  6.122899E-03  0.000000E+00  9.816103E-03 -1.654571E-03  1.731677E-18  2.030991E-01  0.000000E+00
  9.676710E-01  5.229831E-03  5.000000E-01  9.774431E-01  5.299164E-03  0.000000E+00  1.015444E-02 -1.744183E-03 -3.044146E-19  1.904534E-01  0.000000E+00
  9.719750E-01  4.484215E-03  5.000000E-01  9.817905E-01  4.546019E-03  0.000000E+00  1.052028E-02 -1.836337E-03 -2.299807E-18  1.778842E-01  0.000000E+00
  9.758020E-01  3.811325E-03  5.000000E-01  9.856562E-01  3.866334E-03  0.000000E+00  1.091917E-02 -1.932190E-03 -5.109306E-18  1.654461E-01  0.000000E+00
  9.791590E-01  3.213522E-03  5.000000E-01  9.890471E-01  3.262494E-03  0.000000E+00  1.132945E-02 -2.028260E-03 -7.328214E-18  1.530931E-01  0.000000E+00
  9.820540E-01  2.692515E-03  5.000000E-01  9.919713E-01  2.736225E-03  0.000000E+00  1.168130E-02 -2.112700E-03 -2.343586E-20  1.413707E-01  0.000000E+00
  9.844930E-01  2.249714E-03  5.000000E-01  9.944350E-01  2.288952E-03  0.000000E+00  1.183455E-02 -2.155749E-03  2.422621E-17  1.312010E-01  0.000000E+00
  9.864820E-01  1.886106E-03  5.000000E-01  9.964440E-01  1.921672E-03  0.000000E+00  1.143404E-02 -2.084534E-03  4.564298E-17  1.186252E-01  0.000000E+00
  9.880240E-01  1.602606E-03  5.000000E-01  9.980016E-01  1.635310E-03  0.000000E+00  9.982044E-03 -1.851695E-03 -3.991290E-17  9.958785E-02  0.000000E+00
  9.891220E-01  1.399785E-03  5.000000E-01  9.991107E-01  1.430441E-03  0.000000E+00  9.347024E-03 -1.832446E-03 -4.906056E-16  1.161804E-01  0.000000E+00
  9.897810E-01  1.277859E-03  5.000000E-01  9.997764E-01  1.307283E-03  0.000000E+00  1.631675E-02 -1.789681E-03 -1.484567E-15  2.001593E-01  0.000000E+00
  9.900000E-01  1.237237E-03  5.000000E-01  9.999976E-01  1.266251E-03  0.000000E+00  1.323457E-02 -3.063987E-03 -1.937402E-15 -5.152824E-02  0.000000E+00
  9.900000E-01  1.423458E-03  5.000000E-01  9.999976E-01  1.454352E-03  0.000000E+00  1.202598E-03 -1.478419E-02 -1.217174E-15 -1.928802E-01  0.000000E+00
  9.900000E-01  1.609668E-03  5.000000E-01  9.999976E-01  1.642443E-03  0.000000E+00 -7.356166E-04 -1.565318E-02 -2.905644E-16 -1.390652E-02  0.000000E+00
  9.900000E-01  1.795888E-03  5.000000E-01  9.999976E-01  1.830544E-03  0.000000E+00 -4.044010E-04  1.140865E-03  4.632115E-16 -2.587013E-02  0.000000E+00
  9.900000E-01  1.982109E-03  5.000000E-01  9.999976E-01  2.018645E-03  0.000000E+00  7.016922E-04  1.837987E-03  1.494908E-15 -1.331281E-01  0.000000E+00
  9.900000E-01  2.168329E-03  5.000000E-01  9.999976E-01  2.206746E-03  0.000000E+00  6.954927E-03 -4.867245E-03  2.206072E-15 -4.723876E-02  0.000000E+00
  9.900000E-01  2.168329E-03  5.000000E-01  9.999976E-01  2.206746E-03  0.000000E+00  6.954927E-03 -4.867245E-03  2.206072E-15 -4.723876E-02  0.000000E+00
  9.897920E-01  2.226043E-03  5.000000E-01  9.997875E-01  2.265042E-03  0.000000E+00  7.430160E-03 -2.763371E-03  1.567743E-15  7.304614E-02  0.000000E+00
  9.891660E-01  2.399193E-03  5.000000E-01  9.991551E-01  2.439940E-03  0.000000E+00  2.242265E-03 -5.397399E-04  5.151283E-16  8.748912E-03  0.000000E+00
  9.881230E-01  2.687333E-03  5.000000E-01  9.981016E-01  2.730991E-03  0.000000E+00  1.903553E-03 -5.228668E-04  4.908642E-17 -2.759722E-03  0.000000E+00
  9.866580E-01  3.090191E-03  5.000000E-01  9.966218E-01  3.137917E-03  0.000000E+00  2.293912E-03 -6.365462E-04 -4.918045E-17  9.388910E-04  0.000000E+00
  9.847700E-01  3.606916E-03  5.000000E-01  9.947147E-01  3.659860E-03  0.000000E+00  2.410685E-03 -6.573760E-04 -3.558811E-17 -3.242454E-03  0.000000E+00
  9.824550E-01  4.236592E-03  5.000000E-01  9.923764E-01  4.295895E-03  0.000000E+00  2.496544E-03 -6.755192E-04 -1.370473E-17 -1.111171E-02  0.000000E+00
  9.797070E-01  4.978091E-03  5.000000E-01  9.896006E-01  5.044882E-03  0.000000E+00  2.648920E-03 -7.114130E-04 -3.587628E-18 -2.024708E-02  0.000000E+00
  9.765220E-01  5.829804E-03  5.000000E-01  9.863835E-01  5.905196E-03  0.000000E+00  2.865436E-03 -7.619764E-04 -6.747918E-19 -3.100658E-02  0.000000E+00
  9.728930E-01  6.789920E-03  5.000000E-01  9.827178E-01  6.875008E-03  0.000000E+00  3.139375E-03 -8.251668E-04 -3.072762E-20 -4.352625E-02  0.000000E+00
  9.688130E-01  7.856143E-03  5.000000E-01  9.785966E-01  7.951998E-03  0.000000E+00  3.464533E-03 -8.986468E-04  5.033090E-19 -5.770403E-02  0.000000E+00
  9.642740E-01  9.025743E-03  5.000000E-01  9.740118E-01  9.133409E-03  0.000000E+00  3.833950E-03 -9.796263E-04  8.168041E-19 -7.344132E-02  0.000000E+00
  9.592670E-01  1.029544E-02  5.000000E-01  9.689542E-01  1.041593E-02  0.000000E+00  4.242118E-03 -1.065740E-03  3.680659E-19 -9.069724E-02  0.000000E+00
  9.537850E-01  1.166119E-02  5.000000E-01  9.634168E-01  1.179547E-02  0.000000E+00  4.685081E-03 -1.154829E-03  6.291442E-19 -1.093240E-01  0.000000E+00
  9.478160E-01  1.311833E-02  5.000000E-01  9.573876E-01  1.326733E-02  0.000000E+00  5.159417E-03 -1.244820E-03  5.288157E-19 -1.292223E-01  0.000000E+00
  9.413520E-01  1.466127E-02  5.000000E-01  9.508583E-01  1.482585E-02  0.000000E+00  5.662480E-03 -1.333756E-03 -1.038362E-18 -1.502604E-01  0.000000E+00
  9.343800E-01  1.628352E-02  5.000000E-01  9.438159E-01  1.646448E-02  0.000000E+00  6.191664E-03 -1.419582E-03 -7.101708E-19 -1.722558E-01  0.000000E+00
  9.268920E-01  1.797699E-02  5.000000E-01  9.362523E-01  1.817505E-02  0.000000E+00  6.744386E-03 -1.500107E-03 -1.085105E-18 -1.950432E-01  0.000000E+00
  9.188750E-01  1.973269E-02  5.000000E-01  9.281543E-01  1.994849E-02  0.000000E+00  7.317998E-03 -1.572944E-03 -2.078801E-18 -2.183658E-01  0.000000E+00
  9.103190E-01  2.153972E-02  5.000000E-01  9.195119E-01  2.177376E-02  0.000000E+00  7.909307E-03 -1.635492E-03 -7.462494E-19 -2.419646E-01  0.000000E+00
  9.012130E-01  2.338538E-02  5.000000E-01  9.103139E-01  2.363806E-02  0.000000E+00  8.514459E-03 -1.684732E-03  1.024141E-18 -2.654766E-01  0.000000E+00
  8.915460E-01  2.525476E-02  5.000000E-01  9.005493E-01  2.552632E-02  0.000000E+00  9.128047E-03 -1.717333E-03  1.721368E-18 -2.884828E-01  0.000000E+00
  8.813080E-01  2.713073E-02  5.000000E-01  8.902079E-01  2.742123E-02  0.000000E+00  9.741999E-03 -1.729520E-03  1.237547E-18 -3.103843E-01  0.000000E+00
  8.704900E-01  2.899335E-02  5.000000E-01  8.792807E-01  2.930266E-02  0.000000E+00  1.034340E-02 -1.717077E-03  1.935372E-18 -3.303675E-01  0.000000E+00
  8.704900E-01  2.899335E-02  5.000000E-01  8.792807E-01  2.930266E-02  0.000000E+00  1.034340E-02 -1.717077E-03  1.935372E-18 -3.303675E-01  0.000000E+00
  8.590830E-01  3.082047E-02  5.000000E-01  8.677585E-01  3.114823E-02  0.000000E+00  1.091387E-02 -1.676290E-03  2.736975E-18 -3.476259E-01  0.000000E+00
  8.470810E-01  3.258854E-02  5.000000E-01  8.556353E-01  3.293416E-02  0.000000E+00  1.143058E-02 -1.604722E-03  1.598032E-18 -3.611844E-01  0.000000E+00
  8.344780E-01  3.427395E-02  5.000000E-01  8.429050E-01  3.463659E-02  0.000000E+00  1.186328E-02 -1.502280E-03  1.598548E-18 -3.693633E-01  0.000000E+00
  8.212700E-01  3.585618E-02  5.000000E-01  8.295636E-01  3.623480E-02  0.000000E+00  1.216833E-02 -1.373899E-03  1.920634E-18 -3.697672E-01  0.000000E+00
  8.074550E-01  3.732441E-02  5.000000E-01  8.156091E-01  3.771785E-02  0.000000E+00  1.229412E-02 -1.234382E-03 -6.463392E-20 -3.612527E-01  0.000000E+00
  7.930350E-01  3.868897E-02  5.000000E-01  8.010435E-01  3.909619E-02  0.000000E+00  1.221624E-02 -1.110995E-03 -1.090585E-18 -3.476724E-01  0.000000E+00
  7.780130E-01  3.999678E-02  5.000000E-01  7.858698E-01  4.041721E-02  0.000000E+00  1.198092E-02 -1.027609E-03 -1.053836E-18 -3.362302E-01  0.000000E+00
  7.623950E-01  4.131430E-02  5.000000E-01  7.700941E-01  4.174804E-02  0.000000E+00  1.168403E-02 -9.750350E-04 -6.427016E-19 -3.279394E-01  0.000000E+00
  7.461930E-01  4.265224E-02  5.000000E-01  7.537285E-01  4.309949E-02  0.000000E+00  1.139081E-02 -9.323133E-04 -1.955713E-19 -3.202235E-01  0.000000E+00
  7.294180E-01  4.401254E-02  5.000000E-01  7.367841E-01  4.447352E-02  0.000000E+00  1.111584E-02 -8.973463E-04 -5.485791E-19 -3.130992E-01  0.000000E+00
  7.120900E-01  4.540523E-02  5.000000E-01  7.192811E-01  4.588028E-02  0.000000E+00  1.085362E-02 -8.747867E-04  1.640886E-19 -3.063399E-01  0.000000E+00
  6.942280E-01  4.685018E-02  5.000000E-01  7.012387E-01  4.733982E-02  0.000000E+00  1.059452E-02 -8.695981E-04  3.914673E-20 -3.005485E-01  0.000000E+00
  6.758590E-01  4.838036E-02  5.000000E-01  6.826842E-01  4.888545E-02  0.000000E+00  1.034741E-02 -8.870951E-04  6.818736E-19 -2.989642E-01  0.000000E+00
  6.570120E-01  5.004101E-02  5.000000E-01  6.636469E-01  5.056287E-02  0.000000E+00  1.015600E-02 -9.272193E-04  2.094350E-18 -3.052402E-01  0.000000E+00
  6.377220E-01  5.186378E-02  5.000000E-01  6.441621E-01  5.240405E-02  0.000000E+00  1.007962E-02 -9.778679E-04  2.488093E-18 -3.192748E-01  0.000000E+00
  6.180260E-01  5.382467E-02  5.000000E-01  6.242672E-01  5.438474E-02  0.000000E+00  1.015615E-02 -1.026347E-03  2.827044E-18 -3.398479E-01  0.000000E+00
  5.979670E-01  5.587984E-02  5.000000E-01  6.040056E-01  5.646066E-02  0.000000E+00  1.039567E-02 -1.066689E-03  9.960931E-19 -3.667981E-01  0.000000E+00
  5.775910E-01  5.797172E-02  5.000000E-01  5.834238E-01  5.857367E-02  0.000000E+00  1.078362E-02 -1.089898E-03  1.754765E-19 -3.972684E-01  0.000000E+00
  5.569470E-01  6.002805E-02  5.000000E-01  5.625714E-01  6.065076E-02  0.000000E+00  1.126401E-02 -1.082575E-03  2.795522E-19 -4.249505E-01  0.000000E+00
  5.360860E-01  6.196551E-02  5.000000E-01  5.414997E-01  6.260779E-02  0.000000E+00  1.174195E-02 -1.045229E-03 -3.240894E-19 -4.466245E-01  0.000000E+00
  5.150640E-01  6.375855E-02  5.000000E-01  5.202654E-01  6.441894E-02  0.000000E+00  1.213430E-02 -9.960124E-04 -2.600028E-19 -4.641512E-01  0.000000E+00
  4.939370E-01  6.542693E-02  5.000000E-01  4.989250E-01  6.610417E-02  0.000000E+00  1.240958E-02 -9.492947E-04 -4.160049E-19 -4.791070E-01  0.000000E+00
  4.727610E-01  6.699644E-02  5.000000E-01  4.775352E-01  6.768953E-02  0.000000E+00  1.258148E-02 -9.124192E-04  1.283287E-18 -4.937465E-01  0.000000E+00
  5.770140E-06 -1.290545E-04  5.000000E-01  5.829534E-06 -1.138382E-04  0.000000E+00  3.751929E-04 -4.901599E-04 -5.747019E-13  9.429943E-01  0.000000E+00
  9.104010E-05 -4.664980E-04  5.000000E-01  9.196060E-05 -4.546894E-04  0.000000E+00  1.078366E-02 -1.668392E-02 -4.897931E-13  1.007857E+00  0.000000E+00
  4.796980E-04 -1.005815E-03  5.000000E-01  4.845434E-04 -9.994523E-04  0.000000E+00  2.659760E-02 -2.470357E-02 -3.255936E-13  8.068896E-01  0.000000E+00
  1.456590E-03 -1.667166E-03  5.000000E-01  1.471301E-03 -1.667482E-03  0.000000E+00  3.357895E-02 -1.861957E-02 -1.579340E-13  5.197332E-01  0.000000E+00
  3.096410E-03 -2.359861E-03  5.000000E-01  3.127680E-03 -2.367173E-03  0.000000E+00  3.102485E-02 -1.157354E-02 -4.845778E-14  3.726549E-01  0.000000E+00
  5.335170E-03 -3.060993E-03  5.000000E-01  5.389049E-03 -3.075386E-03  0.000000E+00  2.692032E-02 -7.647459E-03 -1.454559E-15  3.113369E-01  0.000000E+00
  8.129670E-03 -3.763523E-03  5.000000E-01  8.211769E-03 -3.785009E-03  0.000000E+00  2.389841E-02 -5.491161E-03  8.785016E-15  2.582269E-01  0.000000E+00
  1.145600E-02 -4.448002E-03  5.000000E-01  1.157169E-02 -4.476401E-03  0.000000E+00  2.134399E-02 -3.878809E-03  6.086825E-15  1.990176E-01  0.000000E+00
  1.529970E-02 -5.043407E-03  5.000000E-01  1.545421E-02 -5.077818E-03  0.000000E+00  1.839217E-02 -2.334679E-03  2.266849E-15  1.375082E-01  0.000000E+00
  1.962420E-02 -5.447132E-03  5.000000E-01  1.982238E-02 -5.485621E-03  0.000000E+00  1.506925E-02 -1.118139E-03  3.306559E-16  1.037499E-01  0.000000E+00
  2.439810E-02 -5.674171E-03  5.000000E-01  2.464449E-02 -5.714952E-03  0.000000E+00  1.264589E-02 -6.058566E-04 -1.779734E-16  1.340072E-01  0.000000E+00
  2.966100E-02 -5.924321E-03  5.000000E-01  2.996053E-02 -5.967628E-03  0.000000E+00  1.207688E-02 -6.288792E-04 -1.524603E-16  1.822389E-01  0.000000E+00
  3.543640E-02 -6.264357E-03  5.000000E-01  3.579426E-02 -6.311098E-03  0.000000E+00  1.270920E-02 -7.836275E-04 -5.400956E-17  1.850898E-01  0.000000E+00
  4.172970E-02 -6.671732E-03  5.000000E-01  4.215111E-02 -6.722588E-03  0.000000E+00  1.343109E-02 -8.602693E-04 -2.243211E-18  1.554726E-01  0.000000E+00
  4.854440E-02 -7.101369E-03  5.000000E-01  4.903463E-02 -7.156563E-03  0.000000E+00  1.376444E-02 -7.994445E-04  8.709392E-18  1.202620E-01  0.000000E+00
  5.588220E-02 -7.489760E-03  5.000000E-01  5.644653E-02 -7.548876E-03  0.000000E+00  1.374709E-02 -6.476783E-04  5.012306E-18  9.205100E-02  0.000000E+00
  6.375220E-02 -7.812311E-03  5.000000E-01  6.439601E-02 -7.874684E-03  0.000000E+00  1.360452E-02 -4.921297E-04  1.224667E-18  7.518127E-02  0.000000E+00
  7.217040E-02 -8.075070E-03  5.000000E-01  7.289922E-02 -8.140097E-03  0.000000E+00  1.352830E-02 -3.741731E-04 -3.814138E-19  6.520329E-02  0.000000E+00
  8.115500E-02 -8.292243E-03  5.000000E-01  8.197455E-02 -8.359463E-03  0.000000E+00  1.356647E-02 -2.795194E-04 -3.409817E-19  5.479563E-02  0.000000E+00
  9.072040E-02 -8.456735E-03  5.000000E-01  9.163655E-02 -8.525616E-03  0.000000E+00  1.365203E-02 -1.755592E-04  1.917422E-20  4.028516E-02  0.000000E+00
  1.008780E-01 -8.543695E-03  5.000000E-01  1.018967E-01 -8.613455E-03  0.000000E+00  1.370138E-02 -4.660050E-05  8.539602E-19  2.415861E-02  0.000000E+00
  1.116380E-01 -8.524305E-03  5.000000E-01  1.127654E-01 -8.593869E-03  0.000000E+00  1.366007E-02  1.094624E-04  1.946791E-18  9.666542E-03  0.000000E+00
  1.230100E-01 -8.361936E-03  5.000000E-01  1.242522E-01 -8.429860E-03  0.000000E+00  1.348392E-02  2.907358E-04  1.907720E-18 -1.706874E-03  0.000000E+00
  1.350030E-01 -8.014380E-03  5.000000E-01  1.363663E-01 -8.078794E-03  0.000000E+00  1.312797E-02  4.895579E-04  1.231941E-18 -8.486205E-03  0.000000E+00
  1.350030E-01 -8.014380E-03  5.000000E-01  1.363663E-01 -8.078794E-03  0.000000E+00  1.312797E-02  4.895579E-04  1.231941E-18 -8.486205E-03  0.000000E+00
  1.476220E-01 -7.435177E-03  5.000000E-01  1.491128E-01 -7.493742E-03  0.000000E+00  1.256228E-02  6.914121E-04  1.138250E-18 -8.644061E-03  0.000000E+00
  1.608730E-01 -6.577726E-03  5.000000E-01  1.624976E-01 -6.627632E-03  0.000000E+00  1.179591E-02  8.759423E-04  2.107514E-19  2.880777E-05  0.000000E+00
  1.747560E-01 -5.403687E-03  5.000000E-01  1.765208E-01 -5.441737E-03  0.000000E+00  1.089031E-02  1.019461E-03 -8.168973E-19  1.889508E-02  0.000000E+00
  1.892730E-01 -3.901471E-03  5.000000E-01  1.911844E-01 -3.924351E-03  0.000000E+00  9.955531E-03  1.097315E-03 -3.922006E-19  4.802038E-02  0.000000E+00
  2.044180E-01 -2.116865E-03  5.000000E-01  2.064823E-01 -2.121723E-03  0.000000E+00  9.138789E-03  1.093412E-03  1.755533E-19  8.778322E-02  0.000000E+00
  2.201880E-01 -1.965668E-04  5.000000E-01  2.224116E-01 -1.820323E-04  0.000000E+00  8.547743E-03  1.028200E-03  4.213660E-19  1.309956E-01  0.000000E+00
  2.365750E-01  1.743158E-03  5.000000E-01  2.389641E-01  1.777281E-03  0.000000E+00  8.168547E-03  9.443458E-04  4.547631E-19  1.652821E-01  0.000000E+00
  2.535710E-01  3.655405E-03  5.000000E-01  2.561317E-01  3.708839E-03  0.000000E+00  7.925610E-03  8.612755E-04  1.050433E-18  1.892463E-01  0.000000E+00
  2.711570E-01  5.498885E-03  5.000000E-01  2.738953E-01  5.570936E-03  0.000000E+00  7.777370E-03  7.786030E-04  3.700170E-19  2.081513E-01  0.000000E+00
  2.893100E-01  7.231110E-03  5.000000E-01  2.922316E-01  7.320653E-03  0.000000E+00  7.721420E-03  6.939947E-04 -6.583226E-19  2.240772E-01  0.000000E+00
  3.080020E-01  8.807215E-03  5.000000E-01  3.111124E-01  8.912675E-03  0.000000E+00  7.757543E-03  6.070794E-04 -8.418489E-19  2.361248E-01  0.000000E+00
  3.271950E-01  1.019361E-02  5.000000E-01  3.304992E-01  1.031307E-02  0.000000E+00  7.871424E-03  5.194849E-04 -2.656755E-19  2.434988E-01  0.000000E+00
  3.468470E-01  1.136976E-02  5.000000E-01  3.503497E-01  1.150109E-02  0.000000E+00  8.034942E-03  4.368945E-04  9.608338E-19  2.458865E-01  0.000000E+00
  3.669110E-01  1.235225E-02  5.000000E-01  3.706163E-01  1.249351E-02  0.000000E+00  8.211142E-03  3.667777E-04  6.205029E-20  2.436232E-01  0.000000E+00
  3.873360E-01  1.317846E-02  5.000000E-01  3.912475E-01  1.332806E-02  0.000000E+00  8.366697E-03  3.126105E-04 -1.868230E-18  2.386382E-01  0.000000E+00
  4.080670E-01  1.389069E-02  5.000000E-01  4.121879E-01  1.404749E-02  0.000000E+00  8.479898E-03  2.747819E-04 -2.413207E-18  2.329801E-01  0.000000E+00
  4.290470E-01  1.453002E-02  5.000000E-01  4.333798E-01  1.469327E-02  0.000000E+00  8.537492E-03  2.530216E-04  3.364648E-19  2.276015E-01  0.000000E+00
  4.502140E-01  1.513942E-02  5.000000E-01  4.547605E-01  1.530883E-02  0.000000E+00  8.533390E-03  2.438272E-04  1.238413E-18  2.233574E-01  0.000000E+00
  4.715070E-01  1.574392E-02  5.000000E-01  4.762685E-01  1.591943E-02  0.000000E+00  8.472889E-03  2.397425E-04 -1.278289E-18  2.215046E-01  0.000000E+00
  4.928620E-01  1.634660E-02  5.000000E-01  4.978392E-01  1.652820E-02  0.000000E+00  8.368711E-03  2.354673E-04 -1.498348E-18  2.220720E-01  0.000000E+00
  5.142140E-01  1.694537E-02  5.000000E-01  5.194068E-01  1.713301E-02  0.000000E+00  8.233899E-03  2.291292E-04  1.107574E-20  2.242970E-01  0.000000E+00
  5.355000E-01  1.753281E-02  5.000000E-01  5.409078E-01  1.772638E-02  0.000000E+00  8.081860E-03  2.197147E-04  3.303621E-19  2.276528E-01  0.000000E+00
  5.566560E-01  1.809892E-02  5.000000E-01  5.622774E-01  1.829821E-02  0.000000E+00  7.930553E-03  2.048981E-04 -7.410324E-20  2.319786E-01  0.000000E+00
  4.727610E-01  6.699644E-02  5.000000E-01  4.775352E-01  6.768953E-02  0.000000E+00  1.258148E-02 -9.124192E-04  1.283287E-18 -4.937465E-01  0.000000E+00
  4.515970E-01  6.849696E-02  5.000000E-01  4.561575E-01  6.920520E-02  0.000000E+00  1.270292E-02 -8.914117E-04  2.318316E-18 -5.129384E-01  0.000000E+00
  4.305020E-01  6.996014E-02  5.000000E-01  4.348494E-01  7.068316E-02  0.000000E+00  1.285859E-02 -8.818287E-04  7.681557E-19 -5.398773E-01  0.000000E+00
  4.095340E-01  7.138164E-02  5.000000E-01  4.136697E-01  7.211901E-02  0.000000E+00  1.312734E-02 -8.663462E-04 -1.814340E-19 -5.735978E-01  0.000000E+00
  3.887520E-01  7.271657E-02  5.000000E-01  3.926778E-01  7.346742E-02  0.000000E+00  1.354750E-02 -8.304571E-04 -7.754433E-19 -6.127967E-01  0.000000E+00
  3.682080E-01  7.391673E-02  5.000000E-01  3.719264E-01  7.467970E-02  0.000000E+00  1.412012E-02 -7.650163E-04 -7.011859E-19 -6.561661E-01  0.000000E+00
  3.479570E-01  7.493171E-02  5.000000E-01  3.514709E-01  7.570493E-02  0.000000E+00  1.481642E-02 -6.591988E-04  1.737973E-19 -7.001919E-01  0.000000E+00
  3.280470E-01  7.571200E-02  5.000000E-01  3.313598E-01  7.649310E-02  0.000000E+00  1.557781E-02 -5.070428E-04  6.852449E-19 -7.413510E-01  0.000000E+00
  3.085240E-01  7.622453E-02  5.000000E-01  3.116396E-01  7.701081E-02  0.000000E+00  1.633794E-02 -3.164206E-04  1.064612E-18 -7.794824E-01  0.000000E+00
  2.894320E-01  7.646880E-02  5.000000E-01  2.923548E-01  7.725754E-02  0.000000E+00  1.705920E-02 -9.697285E-05  3.567754E-19 -8.162517E-01  0.000000E+00
  2.708110E-01  7.644791E-02  5.000000E-01  2.735458E-01  7.723644E-02  0.000000E+00  1.774625E-02  1.511715E-04 -1.454223E-19 -8.541812E-01  0.000000E+00
  2.526960E-01  7.616285E-02  5.000000E-01  2.552479E-01  7.694851E-02  0.000000E+00  1.844645E-02  4.345075E-04 -1.027730E-18 -8.975402E-01  0.000000E+00
  2.351200E-01  7.561418E-02  5.000000E-01  2.374944E-01  7.639430E-02  0.000000E+00  1.923507E-02  7.807627E-04 -2.329007E-18 -9.452222E-01  0.000000E+00
  2.181120E-01  7.477271E-02  5.000000E-01  2.203146E-01  7.554432E-02  0.000000E+00  2.013817E-02  1.235295E-03 -1.841077E-18 -9.874584E-01  0.000000E+00
  2.017010E-01  7.358225E-02  5.000000E-01  2.037379E-01  7.434185E-02  0.000000E+00  2.107953E-02  1.799893E-03 -1.722725E-18 -1.020312E+00  0.000000E+00
  1.859190E-01  7.203949E-02  5.000000E-01  1.877965E-01  7.278350E-02  0.000000E+00  2.197461E-02  2.440544E-03 -4.625902E-19 -1.048372E+00  0.000000E+00
  1.707920E-01  7.016479E-02  5.000000E-01  1.725168E-01  7.088987E-02  0.000000E+00  2.281083E-02  3.160613E-03  2.320743E-19 -1.071237E+00  0.000000E+00
  1.563470E-01  6.795960E-02  5.000000E-01  1.579259E-01  6.866242E-02  0.000000E+00  2.359033E-02  3.987408E-03 -7.972078E-19 -1.083345E+00  0.000000E+00
  1.426070E-01  6.541990E-02  5.000000E-01  1.440471E-01  6.609707E-02  0.000000E+00  2.427734E-02  4.923215E-03 -1.949229E-18 -1.079579E+00  0.000000E+00
  1.295900E-01  6.255309E-02  5.000000E-01  1.308987E-01  6.320131E-02  0.000000E+00  2.480733E-02  5.935417E-03 -4.375483E-18 -1.056977E+00  0.000000E+00
  1.173060E-01  5.938502E-02  5.000000E-01  1.184906E-01  6.000124E-02  0.000000E+00  2.511634E-02  6.972924E-03 -3.899245E-18 -1.014481E+00  0.000000E+00
  1.057600E-01  5.595433E-02  5.000000E-01  1.068280E-01  5.653591E-02  0.000000E+00  2.516334E-02  7.981691E-03 -8.790785E-19 -9.526413E-01  0.000000E+00
  9.495290E-02  5.230935E-02  5.000000E-01  9.591179E-02  5.285411E-02  0.000000E+00  2.494299E-02  8.910215E-03 -1.464242E-18 -8.741295E-01  0.000000E+00
  8.487680E-02  4.850648E-02  5.000000E-01  8.573393E-02  4.901284E-02  0.000000E+00  2.448584E-02  9.721600E-03  1.272090E-18 -7.817656E-01  0.000000E+00
  8.487680E-02  4.850648E-02  5.000000E-01  8.573393E-02  4.901284E-02  0.000000E+00  2.448584E-02  9.721600E-03  1.272090E-18 -7.817656E-01  0.000000E+00
  7.552090E-02  4.460512E-02  5.000000E-01  7.628355E-02  4.507208E-02  0.000000E+00  2.382766E-02  1.039084E-02  5.623981E-18 -6.765506E-01  0.000000E+00
  6.687020E-02  4.066368E-02  5.000000E-01  6.754549E-02  4.109084E-02  0.000000E+00  2.298571E-02  1.087504E-02  7.959664E-18 -5.614485E-01  0.000000E+00
  5.889940E-02  3.674811E-02  5.000000E-01  5.949420E-02  3.713573E-02  0.000000E+00  2.199487E-02  1.112913E-02  9.229850E-18 -4.443077E-01  0.000000E+00
  5.157140E-02  3.292694E-02  5.000000E-01  5.209220E-02  3.327598E-02  0.000000E+00  2.095427E-02  1.117497E-02  6.807201E-18 -3.341599E-01  0.000000E+00
  4.484650E-02  2.925667E-02  5.000000E-01  4.529939E-02  2.956864E-02  0.000000E+00  2.001451E-02  1.113388E-02  7.224227E-18 -2.356885E-01  0.000000E+00
  3.869820E-02  2.576902E-02  5.000000E-01  3.908900E-02  2.604577E-02  0.000000E+00  1.931909E-02  1.117467E-02  5.140169E-19 -1.479877E-01  0.000000E+00
  3.311550E-02  2.247507E-02  5.000000E-01  3.344992E-02  2.271856E-02  0.000000E+00  1.893357E-02  1.141681E-02 -2.264750E-17 -6.568668E-02  0.000000E+00
  2.809130E-02  1.938111E-02  5.000000E-01  2.837498E-02  1.959335E-02  0.000000E+00  1.870191E-02  1.181851E-02 -5.561621E-17  2.732602E-02  0.000000E+00
  2.362330E-02  1.648947E-02  5.000000E-01  2.386186E-02  1.667251E-02  0.000000E+00  1.819697E-02  1.200810E-02 -1.124110E-16  1.416495E-01  0.000000E+00
  1.966610E-02  1.382600E-02  5.000000E-01  1.986470E-02  1.398214E-02  0.000000E+00  1.717125E-02  1.148205E-02 -1.779533E-16  2.498939E-01  0.000000E+00
  1.609460E-02  1.145149E-02  5.000000E-01  1.625713E-02  1.158365E-02  0.000000E+00  1.595125E-02  1.034643E-02 -7.004491E-17  3.232026E-01  0.000000E+00
  1.282740E-02  9.387717E-03  5.000000E-01  1.295694E-02  9.499039E-03  0.000000E+00  1.516292E-02  9.334889E-03  7.160276E-16  3.638611E-01  0.000000E+00
  9.860990E-03  7.610968E-03  5.000000E-01  9.960573E-03  7.704347E-03  0.000000E+00  1.528524E-02  9.103454E-03  2.918695E-15  3.902009E-01  0.000000E+00
  7.251350E-03  6.066769E-03  5.000000E-01  7.324579E-03  6.144554E-03  0.000000E+00  1.647834E-02  9.918718E-03  6.341067E-15  4.171449E-01  0.000000E+00
  5.038810E-03  4.715119E-03  5.000000E-01  5.089696E-03  4.779254E-03  0.000000E+00  1.874255E-02  1.190850E-02  6.686669E-15  4.469283E-01  0.000000E+00
  3.239710E-03  3.534594E-03  5.000000E-01  3.272427E-03  3.586808E-03  0.000000E+00  2.193549E-02  1.542204E-02 -8.931484E-15  4.855902E-01  0.000000E+00
  1.861880E-03  2.512331E-03  5.000000E-01  1.880683E-03  2.554222E-03  0.000000E+00  2.508002E-02  2.078623E-02 -6.299842E-14  5.510616E-01  0.000000E+00
  9.013910E-04  1.644626E-03  5.000000E-01  9.104949E-04  1.677754E-03  0.000000E+00  2.517487E-02  2.679115E-02 -1.763788E-13  6.725484E-01  0.000000E+00
  3.295630E-04  9.390830E-04  5.000000E-01  3.328922E-04  9.650859E-04  0.000000E+00  1.839472E-02  2.775163E-02 -3.421715E-13  8.502080E-01  0.000000E+00
  7.194000E-05  4.141188E-04  5.000000E-01  7.266761E-05  4.348203E-04  0.000000E+00  7.317194E-03  1.621160E-02 -5.041084E-13  9.757400E-01  0.000000E+00
  4.516100E-06  9.193710E-05  5.000000E-01  4.562830E-06  1.093851E-04  0.000000E+00  3.958216E-04  8.329398E-05 -5.858770E-13  9.370024E-01  0.000000E+00
 -1.112850E-09 -1.635441E-05  5.000000E-01  0.000000E+00  0.000000E+00  0.000000E+00 -1.191525E-03 -1.709108E-04 -5.940570E-13  8.623671E-01  0.000000E+00