 Title = "ADflow Slice Data"
Variables =  "CoordinateX"  "CoordinateY"  "CoordinateZ"  "XoC"  "YoC"  "ZoC" "VelocityX" "VelocityY" "VelocityZ" "CoefPressure" "Mach" 
Zone T= "Slice_0001 None Absolute Regular z = 0.50000000"
 Nodes =          192  Elements=          184  ZONETYPE=FELINESEG
 DATAPACKING=POINT
  5.566560E-01  3.503194E-02  5.000000E-01  5.622779E-01  3.519479E-02  0.000000E+00  7.790177E-03 -1.013598E-03 -2.459711E-18  4.072911E-01  0.000000E+00
  5.776220E-01  3.162122E-02  5.000000E-01  5.834557E-01  3.174963E-02  0.000000E+00  9.948831E-03 -1.797021E-03 -2.639434E-18  3.472457E-01  0.000000E+00
  5.983370E-01  2.756712E-02  5.000000E-01  6.043799E-01  2.765458E-02  0.000000E+00  1.184482E-02 -2.255391E-03 -1.330322E-18  2.402545E-01  0.000000E+00
  6.187480E-01  2.377917E-02  5.000000E-01  6.249970E-01  2.382838E-02  0.000000E+00  1.275949E-02 -2.040870E-03  3.590388E-19  1.220195E-01  0.000000E+00
  6.388030E-01  2.107606E-02  5.000000E-01  6.452546E-01  2.109797E-02  0.000000E+00  1.208462E-02 -1.124424E-03 -1.384670E-18  1.900396E-02  0.000000E+00
  6.584530E-01  2.016814E-02  5.000000E-01  6.651030E-01  2.018088E-02  0.000000E+00  9.640273E-03 -7.710494E-06 -5.148395E-18 -4.277695E-02  0.000000E+00
  6.776550E-01  2.142836E-02  5.000000E-01  6.844990E-01  2.145382E-02  0.000000E+00  6.234799E-03  5.574769E-04 -7.046155E-18  1.456775E-03  0.000000E+00
  6.963720E-01  2.400702E-02  5.000000E-01  7.034050E-01  2.405853E-02  0.000000E+00  3.298571E-03  4.774513E-04 -7.223375E-18  1.478872E-01  0.000000E+00
  7.145680E-01  2.680521E-02  5.000000E-01  7.217848E-01  2.688498E-02  0.000000E+00  1.641167E-03  2.441651E-04 -7.101794E-18  2.913147E-01  0.000000E+00
  7.322140E-01  2.899615E-02  5.000000E-01  7.396090E-01  2.909805E-02  0.000000E+00  1.171875E-03  1.103243E-04 -2.965609E-18  3.737046E-01  0.000000E+00
  7.492860E-01  3.005278E-02  5.000000E-01  7.568534E-01  3.016535E-02  0.000000E+00  1.523430E-03  1.498455E-05  8.453188E-19  4.077698E-01  0.000000E+00
  7.657630E-01  2.970885E-02  5.000000E-01  7.734968E-01  2.981795E-02  0.000000E+00  2.476505E-03 -1.989613E-04  1.211424E-18  4.193346E-01  0.000000E+00
  7.816300E-01  2.789336E-02  5.000000E-01  7.895241E-01  2.798412E-02  0.000000E+00  3.940213E-03 -6.544215E-04  1.315726E-18  4.164783E-01  0.000000E+00
  7.968740E-01  2.484421E-02  5.000000E-01  8.049220E-01  2.490417E-02  0.000000E+00  5.764614E-03 -1.306728E-03  1.459940E-18  3.847614E-01  0.000000E+00
  8.114890E-01  2.124008E-02  5.000000E-01  8.196846E-01  2.126364E-02  0.000000E+00  7.688787E-03 -1.958522E-03  2.396803E-18  3.193875E-01  0.000000E+00
  8.254710E-01  1.759155E-02  5.000000E-01  8.338078E-01  1.757826E-02  0.000000E+00  9.479780E-03 -2.445048E-03  8.428091E-19  2.393532E-01  0.000000E+00
  8.388180E-01  1.418623E-02  5.000000E-01  8.472896E-01  1.413855E-02  0.000000E+00  1.101286E-02 -2.709506E-03 -1.057975E-18  1.600966E-01  0.000000E+00
  8.515320E-01  1.116145E-02  5.000000E-01  8.601320E-01  1.108322E-02  0.000000E+00  1.223331E-02 -2.763940E-03  4.711499E-19  8.792235E-02  0.000000E+00
  8.636180E-01  8.564044E-03  5.000000E-01  8.723401E-01  8.459587E-03  0.000000E+00  1.312225E-02 -2.649498E-03  1.001690E-18  2.571598E-02  0.000000E+00
  8.750810E-01  6.391147E-03  5.000000E-01  8.839189E-01  6.264745E-03  0.000000E+00  1.369018E-02 -2.416824E-03  1.903556E-19 -2.486738E-02  0.000000E+00
  8.859290E-01  4.613607E-03  5.000000E-01  8.948764E-01  4.469253E-03  0.000000E+00  1.397319E-02 -2.114991E-03  7.589072E-20 -6.347485E-02  0.000000E+00
  8.961710E-01  3.190296E-03  5.000000E-01  9.052219E-01  3.031567E-03  0.000000E+00  1.402053E-02 -1.784008E-03 -5.505441E-19 -9.100044E-02  0.000000E+00
  9.058170E-01  2.076654E-03  5.000000E-01  9.149653E-01  1.906678E-03  0.000000E+00  1.388178E-02 -1.452208E-03 -1.215359E-18 -1.089006E-01  0.000000E+00
  9.148770E-01  1.228729E-03  5.000000E-01  9.241168E-01  1.050190E-03  0.000000E+00  1.360001E-02 -1.137485E-03 -7.089891E-19 -1.187111E-01  0.000000E+00
  9.148770E-01  1.228729E-03  5.000000E-01  9.241168E-01  1.050190E-03  0.000000E+00  1.360001E-02 -1.137485E-03 -7.089891E-19 -1.187111E-01  0.000000E+00
  9.233640E-01  6.055842E-04  5.000000E-01  9.326895E-01  4.207514E-04  0.000000E+00  1.321044E-02 -8.502982E-04  5.321749E-19 -1.218223E-01  0.000000E+00
  9.312880E-01  1.697973E-04  5.000000E-01  9.406935E-01 -1.943677E-05  0.000000E+00  1.274145E-02 -5.959497E-04  1.630175E-18 -1.194776E-01  0.000000E+00
  9.386620E-01 -1.119767E-04  5.000000E-01  9.481420E-01 -3.040565E-04  0.000000E+00  1.221528E-02 -3.761022E-04  2.091400E-18 -1.128111E-01  0.000000E+00
  9.454960E-01 -2.693077E-04  5.000000E-01  9.550450E-01 -4.629765E-04  0.000000E+00  1.164862E-02 -1.901334E-04  9.845640E-19 -1.028310E-01  0.000000E+00
  9.518040E-01 -3.278052E-04  5.000000E-01  9.614167E-01 -5.220647E-04  0.000000E+00  1.105429E-02 -3.624945E-05  7.733421E-19 -9.035055E-02  0.000000E+00
  9.575950E-01 -3.100796E-04  5.000000E-01  9.672662E-01 -5.041601E-04  0.000000E+00  1.044328E-02  8.800575E-05  1.320731E-18 -7.604552E-02  0.000000E+00
  9.628810E-01 -2.353970E-04  5.000000E-01  9.726056E-01 -4.287233E-04  0.000000E+00  9.825494E-03  1.855819E-04  2.554613E-18 -6.053525E-02  0.000000E+00
  9.676710E-01 -1.205861E-04  5.000000E-01  9.774440E-01 -3.127528E-04  0.000000E+00  9.209685E-03  2.595337E-04  3.200072E-18 -4.434782E-02  0.000000E+00
  9.719750E-01  2.013684E-05  5.000000E-01  9.817914E-01 -1.706087E-04  0.000000E+00  8.601690E-03  3.129423E-04  1.112328E-18 -2.795008E-02  0.000000E+00
  9.758020E-01  1.746239E-04  5.000000E-01  9.856571E-01 -1.456135E-05  0.000000E+00  8.000602E-03  3.484866E-04  9.896810E-19 -1.168758E-02  0.000000E+00
  9.791590E-01  3.324694E-04  5.000000E-01  9.890480E-01  1.448782E-04  0.000000E+00  7.390104E-03  3.676858E-04  6.005332E-18  3.977771E-03  0.000000E+00
  9.820540E-01  4.851876E-04  5.000000E-01  9.919722E-01  2.991389E-04  0.000000E+00  6.736701E-03  3.698130E-04  1.567880E-17  1.881750E-02  0.000000E+00
  9.844930E-01  6.256391E-04  5.000000E-01  9.944359E-01  4.410088E-04  0.000000E+00  6.006752E-03  3.557042E-04  3.430843E-17  3.319782E-02  0.000000E+00
  9.864820E-01  7.481427E-04  5.000000E-01  9.964450E-01  5.647497E-04  0.000000E+00  5.103309E-03  3.289011E-04  4.596201E-17  4.469187E-02  0.000000E+00
  9.880240E-01  8.479193E-04  5.000000E-01  9.980025E-01  6.655339E-04  0.000000E+00  3.782277E-03  2.468200E-04 -4.132782E-17  4.652589E-02  0.000000E+00
  9.891220E-01  9.214039E-04  5.000000E-01  9.991116E-01  7.397607E-04  0.000000E+00  3.205009E-03  1.247051E-04 -4.383669E-16  6.309971E-02  0.000000E+00
  9.897810E-01  9.666575E-04  5.000000E-01  9.997773E-01  7.854713E-04  0.000000E+00  8.564164E-03  1.325547E-03 -1.271820E-15  1.416660E-01  0.000000E+00
  9.900000E-01  9.818164E-04  5.000000E-01  9.999985E-01  8.007834E-04  0.000000E+00  8.043817E-03  5.630668E-04 -1.652290E-15  6.172859E-04  0.000000E+00
  9.900000E-01  1.168037E-03  5.000000E-01  9.999985E-01  9.888842E-04  0.000000E+00  7.956070E-04 -8.681174E-03 -1.080640E-15 -8.953681E-02  0.000000E+00
  9.900000E-01  1.354247E-03  5.000000E-01  9.999985E-01  1.176975E-03  0.000000E+00 -5.058681E-04 -9.588900E-03 -3.263287E-16  3.325705E-02  0.000000E+00
  9.900000E-01  1.540467E-03  5.000000E-01  9.999985E-01  1.365076E-03  0.000000E+00 -3.377161E-04  2.306426E-03  3.191625E-16  2.907982E-02  0.000000E+00
  9.900000E-01  1.726687E-03  5.000000E-01  9.999985E-01  1.553177E-03  0.000000E+00  5.909401E-04  2.475832E-03  1.215704E-15 -5.889080E-02  0.000000E+00
  9.900000E-01  1.912907E-03  5.000000E-01  9.999985E-01  1.741278E-03  0.000000E+00  5.559517E-03 -2.314879E-03  1.809669E-15  1.781256E-02  0.000000E+00
  9.900000E-01  1.912907E-03  5.000000E-01  9.999985E-01  1.741278E-03  0.000000E+00  5.559517E-03 -2.314879E-03  1.809669E-15  1.781256E-02  0.000000E+00
  9.897920E-01  1.917875E-03  5.000000E-01  9.997884E-01  1.746296E-03  0.000000E+00  5.881761E-03 -8.297613E-04  1.271592E-15  1.339180E-01  0.000000E+00
  9.891660E-01  1.932942E-03  5.000000E-01  9.991561E-01  1.761515E-03  0.000000E+00  1.917576E-03  1.306910E-05  4.163627E-16  8.364643E-02  0.000000E+00
  9.881230E-01  1.959905E-03  5.000000E-01  9.981025E-01  1.788750E-03  0.000000E+00  2.044524E-03 -4.559212E-05  3.770589E-17  6.959511E-02  0.000000E+00
  9.866580E-01  2.000590E-03  5.000000E-01  9.966227E-01  1.829846E-03  0.000000E+00  2.695273E-03 -8.527363E-05 -4.082869E-17  7.758610E-02  0.000000E+00
  9.847700E-01  2.058672E-03  5.000000E-01  9.947157E-01  1.888515E-03  0.000000E+00  2.770153E-03 -9.123711E-05 -2.662257E-17  8.222368E-02  0.000000E+00
  9.824550E-01  2.138513E-03  5.000000E-01  9.923773E-01  1.969162E-03  0.000000E+00  2.563685E-03 -9.332667E-05 -7.268348E-18  8.368800E-02  0.000000E+00
  9.797070E-01  2.245401E-03  5.000000E-01  9.896015E-01  2.077130E-03  0.000000E+00  2.292026E-03 -9.495388E-05 -4.946742E-19  8.479751E-02  0.000000E+00
  9.765220E-01  2.386364E-03  5.000000E-01  9.863844E-01  2.219516E-03  0.000000E+00  2.012426E-03 -9.500312E-05  4.342633E-19  8.568676E-02  0.000000E+00
  9.728930E-01  2.569434E-03  5.000000E-01  9.827187E-01  2.404435E-03  0.000000E+00  1.740932E-03 -9.367042E-05 -2.614261E-20  8.606831E-02  0.000000E+00
  9.688130E-01  2.804278E-03  5.000000E-01  9.785975E-01  2.641651E-03  0.000000E+00  1.483295E-03 -9.093269E-05 -1.011196E-18  8.578961E-02  0.000000E+00
  9.642740E-01  3.102266E-03  5.000000E-01  9.740127E-01  2.942648E-03  0.000000E+00  1.238762E-03 -8.649963E-05 -1.940533E-18  8.483990E-02  0.000000E+00
  9.592670E-01  3.476649E-03  5.000000E-01  9.689551E-01  3.320812E-03  0.000000E+00  1.003900E-03 -7.972262E-05 -2.653342E-18  8.310834E-02  0.000000E+00
  9.537850E-01  3.943171E-03  5.000000E-01  9.634177E-01  3.792046E-03  0.000000E+00  7.764174E-04 -6.991162E-05 -1.046060E-18  8.049465E-02  0.000000E+00
  9.478160E-01  4.519406E-03  5.000000E-01  9.573884E-01  4.374101E-03  0.000000E+00  5.552320E-04 -5.651417E-05 -1.664244E-18  7.694912E-02  0.000000E+00
  9.413520E-01  5.226296E-03  5.000000E-01  9.508592E-01  5.088130E-03  0.000000E+00  3.405702E-04 -3.895495E-05 -4.611948E-18  7.235000E-02  0.000000E+00
  9.343800E-01  6.087333E-03  5.000000E-01  9.438168E-01  5.957863E-03  0.000000E+00  1.338607E-04 -1.681905E-05 -4.044235E-18  6.661166E-02  0.000000E+00
  9.268920E-01  7.129605E-03  5.000000E-01  9.362531E-01  7.010662E-03  0.000000E+00 -6.361977E-05  1.020790E-05 -2.376799E-18  5.968800E-02  0.000000E+00
  9.188750E-01  8.383801E-03  5.000000E-01  9.281552E-01  8.277524E-03  0.000000E+00 -2.510426E-04  4.247648E-05 -2.898603E-18  5.149552E-02  0.000000E+00
  9.103190E-01  9.884423E-03  5.000000E-01  9.195127E-01  9.793302E-03  0.000000E+00 -4.273891E-04  8.022587E-05 -1.695572E-18  4.191886E-02  0.000000E+00
  9.012130E-01  1.166978E-02  5.000000E-01  9.103148E-01  1.159669E-02  0.000000E+00 -5.913491E-04  1.234857E-04 -2.608413E-19  3.089884E-02  0.000000E+00
  8.915460E-01  1.378143E-02  5.000000E-01  9.005502E-01  1.372967E-02  0.000000E+00 -7.411836E-04  1.717637E-04 -1.811798E-20  1.841961E-02  0.000000E+00
  8.813080E-01  1.626344E-02  5.000000E-01  8.902088E-01  1.623675E-02  0.000000E+00 -8.700215E-04  2.226194E-04  1.110648E-18  4.050345E-03  0.000000E+00
  8.704900E-01  1.915934E-02  5.000000E-01  8.792815E-01  1.916189E-02  0.000000E+00 -9.560975E-04  2.687957E-04  1.171832E-18 -1.343679E-02  0.000000E+00
  8.704900E-01  1.915934E-02  5.000000E-01  8.792815E-01  1.916189E-02  0.000000E+00 -9.560975E-04  2.687957E-04  1.171832E-18 -1.343679E-02  0.000000E+00
  8.590830E-01  2.250799E-02  5.000000E-01  8.677593E-01  2.254436E-02  0.000000E+00 -9.610177E-04  2.948333E-04  8.393334E-19 -3.518274E-02  0.000000E+00
  8.470810E-01  2.633484E-02  5.000000E-01  8.556361E-01  2.640986E-02  0.000000E+00 -8.325245E-04  2.756717E-04  1.088442E-19 -6.309200E-02  0.000000E+00
  8.344780E-01  3.063631E-02  5.000000E-01  8.429058E-01  3.075477E-02  0.000000E+00 -4.768416E-04  1.653176E-04  1.362418E-18 -1.044410E-01  0.000000E+00
  8.212700E-01  3.535265E-02  5.000000E-01  8.295644E-01  3.551874E-02  0.000000E+00  3.369305E-04 -1.274469E-04  2.071789E-18 -1.795184E-01  0.000000E+00
  8.074550E-01  4.032508E-02  5.000000E-01  8.156099E-01  4.054139E-02  0.000000E+00  2.060695E-03 -7.192858E-04  1.852305E-18 -3.133737E-01  0.000000E+00
  7.930350E-01  4.523413E-02  5.000000E-01  8.010442E-01  4.550003E-02  0.000000E+00  5.156161E-03 -1.560063E-03  2.201489E-18 -4.923221E-01  0.000000E+00
  7.780130E-01  4.953153E-02  5.000000E-01  7.858705E-01  4.984082E-02  0.000000E+00  9.490920E-03 -2.178127E-03  2.096080E-18 -6.436628E-01  0.000000E+00
  7.623950E-01  5.260758E-02  5.000000E-01  7.700948E-01  5.294794E-02  0.000000E+00  1.396426E-02 -2.013280E-03  4.510531E-18 -7.109121E-01  0.000000E+00
  7.461930E-01  5.431596E-02  5.000000E-01  7.537292E-01  5.467357E-02  0.000000E+00  1.709044E-02 -1.054237E-03  5.628675E-18 -6.821681E-01  0.000000E+00
  7.294180E-01  5.471072E-02  5.000000E-01  7.367847E-01  5.507232E-02  0.000000E+00  1.790770E-02  1.429742E-04  2.881254E-18 -5.637373E-01  0.000000E+00
  7.120900E-01  5.401821E-02  5.000000E-01  7.192817E-01  5.437282E-02  0.000000E+00  1.637545E-02  9.138382E-04  1.916147E-18 -3.910982E-01  0.000000E+00
  6.942280E-01  5.269111E-02  5.000000E-01  7.012393E-01  5.303232E-02  0.000000E+00  1.323836E-02  9.434598E-04  1.715071E-18 -2.199255E-01  0.000000E+00
  6.758590E-01  5.144202E-02  5.000000E-01  6.826848E-01  5.177061E-02  0.000000E+00  9.564469E-03  4.270023E-04  2.403507E-18 -1.070676E-01  0.000000E+00
  6.570120E-01  5.121637E-02  5.000000E-01  6.636475E-01  5.154268E-02  0.000000E+00  6.355597E-03 -1.430159E-04  3.787197E-18 -7.609056E-02  0.000000E+00
  6.377220E-01  5.269014E-02  5.000000E-01  6.441627E-01  5.303133E-02  0.000000E+00  4.267021E-03 -4.465358E-04  2.161230E-18 -9.937788E-02  0.000000E+00
  6.180260E-01  5.556566E-02  5.000000E-01  6.242677E-01  5.593589E-02  0.000000E+00  3.504088E-03 -5.881394E-04  7.365146E-19 -1.587452E-01  0.000000E+00
  5.979670E-01  5.934427E-02  5.000000E-01  6.040062E-01  5.975267E-02  0.000000E+00  4.066108E-03 -8.038875E-04  2.310573E-18 -2.618261E-01  0.000000E+00
  5.775910E-01  6.347552E-02  5.000000E-01  5.834244E-01  6.392564E-02  0.000000E+00  5.872726E-03 -1.137923E-03  1.691300E-18 -3.910220E-01  0.000000E+00
  5.569470E-01  6.736893E-02  5.000000E-01  5.625719E-01  6.785837E-02  0.000000E+00  8.532819E-03 -1.399083E-03  3.432073E-19 -4.962048E-01  0.000000E+00
  5.360860E-01  7.045072E-02  5.000000E-01  5.415002E-01  7.097129E-02  0.000000E+00  1.124999E-02 -1.392413E-03  1.826580E-18 -5.478591E-01  0.000000E+00
  5.150640E-01  7.265061E-02  5.000000E-01  5.202659E-01  7.319339E-02  0.000000E+00  1.322905E-02 -1.174813E-03  1.070817E-18 -5.599646E-01  0.000000E+00
  4.939370E-01  7.422633E-02  5.000000E-01  4.989255E-01  7.478502E-02  0.000000E+00  1.411891E-02 -9.276583E-04 -1.731399E-18 -5.473976E-01  0.000000E+00
  4.727610E-01  7.543761E-02  5.000000E-01  4.775356E-01  7.600854E-02  0.000000E+00  1.401366E-02 -7.659617E-04 -2.612754E-18 -5.230870E-01  0.000000E+00
  5.770140E-06  7.843649E-05  5.000000E-01  5.829539E-06 -1.117202E-04  0.000000E+00  1.360459E-02 -8.413656E-02 -2.242729E-13  5.602227E-01  0.000000E+00
  9.104010E-05 -2.383813E-04  5.000000E-01  9.196068E-05 -4.317377E-04  0.000000E+00  4.625676E-02 -8.325272E-02 -2.060296E-13  4.078061E-01  0.000000E+00
  4.796980E-04 -6.895534E-04  5.000000E-01  4.845438E-04 -8.874664E-04  0.000000E+00  6.799917E-02 -5.477093E-02 -1.420862E-13 -1.833709E-01  0.000000E+00
  1.456590E-03 -1.127441E-03  5.000000E-01  1.471302E-03 -1.329776E-03  0.000000E+00  5.460620E-02 -1.952320E-02 -6.975776E-14 -5.498007E-01  0.000000E+00
  3.096410E-03 -1.433907E-03  5.000000E-01  3.127683E-03 -1.639338E-03  0.000000E+00  3.168352E-02 -4.584651E-03 -2.196503E-14 -4.806525E-01  0.000000E+00
  5.335170E-03 -1.589791E-03  5.000000E-01  5.389054E-03 -1.796796E-03  0.000000E+00  1.919377E-02 -7.439296E-04 -1.637355E-15 -3.184599E-01  0.000000E+00
  8.129670E-03 -1.590923E-03  5.000000E-01  8.211777E-03 -1.797940E-03  0.000000E+00  1.443422E-02  3.419370E-04  2.927608E-15 -2.257738E-01  0.000000E+00
  1.145600E-02 -1.421377E-03  5.000000E-01  1.157170E-02 -1.626681E-03  0.000000E+00  1.195099E-02  8.971661E-04  2.110487E-15 -1.892022E-01  0.000000E+00
  1.529970E-02 -1.021125E-03  5.000000E-01  1.545422E-02 -1.222386E-03  0.000000E+00  9.367495E-03  1.205672E-03  7.867195E-16 -1.659942E-01  0.000000E+00
  1.962420E-02 -3.155115E-04  5.000000E-01  1.982240E-02 -5.096469E-04  0.000000E+00  6.773421E-03  1.206520E-03  1.290315E-16 -1.147060E-01  0.000000E+00
  2.439810E-02  6.604603E-04  5.000000E-01  2.464451E-02  4.761817E-04  0.000000E+00  5.362068E-03  1.094577E-03 -4.359412E-17 -1.537782E-02  0.000000E+00
  2.966100E-02  1.732226E-03  5.000000E-01  2.996056E-02  1.558772E-03  0.000000E+00  5.649774E-03  1.130251E-03 -4.168108E-17  8.273928E-02  0.000000E+00
  3.543640E-02  2.844169E-03  5.000000E-01  3.579429E-02  2.681944E-03  0.000000E+00  6.781165E-03  1.282400E-03 -1.653434E-17  1.311805E-01  0.000000E+00
  4.172970E-02  4.011880E-03  5.000000E-01  4.215115E-02  3.861449E-03  0.000000E+00  7.714459E-03  1.422476E-03 -3.745461E-18  1.480547E-01  0.000000E+00
  4.854440E-02  5.265420E-03  5.000000E-01  4.903467E-02  5.127649E-03  0.000000E+00  8.100948E-03  1.505267E-03  8.780454E-19  1.597314E-01  0.000000E+00
  5.588220E-02  6.644797E-03  5.000000E-01  5.644658E-02  6.520957E-03  0.000000E+00  8.068144E-03  1.531996E-03  1.826112E-18  1.762058E-01  0.000000E+00
  6.375220E-02  8.156218E-03  5.000000E-01  6.439607E-02  8.047643E-03  0.000000E+00  7.857880E-03  1.512462E-03 -7.135702E-19  1.990157E-01  0.000000E+00
  7.217040E-02  9.780428E-03  5.000000E-01  7.289928E-02  9.688256E-03  0.000000E+00  7.641943E-03  1.464813E-03 -5.957681E-19  2.242739E-01  0.000000E+00
  8.115500E-02  1.148979E-02  5.000000E-01  8.197462E-02  1.141488E-02  0.000000E+00  7.472506E-03  1.406516E-03  2.627029E-19  2.474106E-01  0.000000E+00
  9.072040E-02  1.326886E-02  5.000000E-01  9.163663E-02  1.321192E-02  0.000000E+00  7.325502E-03  1.345437E-03 -4.633500E-19  2.666662E-01  0.000000E+00
  1.008780E-01  1.511022E-02  5.000000E-01  1.018968E-01  1.507188E-02  0.000000E+00  7.170747E-03  1.280743E-03  6.650459E-19  2.837073E-01  0.000000E+00
  1.116380E-01  1.700314E-02  5.000000E-01  1.127655E-01  1.698392E-02  0.000000E+00  7.001114E-03  1.210903E-03  2.541729E-18  3.001152E-01  0.000000E+00
  1.230100E-01  1.893550E-02  5.000000E-01  1.242523E-01  1.893579E-02  0.000000E+00  6.820793E-03  1.135963E-03  2.736592E-18  3.160758E-01  0.000000E+00
  1.350030E-01  2.089115E-02  5.000000E-01  1.363665E-01  2.091119E-02  0.000000E+00  6.635861E-03  1.055966E-03 -3.307060E-20  3.315443E-01  0.000000E+00
  1.350030E-01  2.089115E-02  5.000000E-01  1.363665E-01  2.091119E-02  0.000000E+00  6.635861E-03  1.055966E-03 -3.307060E-20  3.315443E-01  0.000000E+00
  1.476220E-01  2.284813E-02  5.000000E-01  1.491129E-01  2.288794E-02  0.000000E+00  6.455988E-03  9.710361E-04 -1.692835E-18  3.465109E-01  0.000000E+00
  1.608730E-01  2.477763E-02  5.000000E-01  1.624977E-01  2.483692E-02  0.000000E+00  6.296931E-03  8.815910E-04  6.461249E-19  3.608567E-01  0.000000E+00
  1.747560E-01  2.664177E-02  5.000000E-01  1.765209E-01  2.671989E-02  0.000000E+00  6.180605E-03  7.879767E-04  1.622459E-18  3.742472E-01  0.000000E+00
  1.892730E-01  2.839256E-02  5.000000E-01  1.911846E-01  2.848836E-02  0.000000E+00  6.132898E-03  6.894870E-04 -1.702339E-19  3.860152E-01  0.000000E+00
  2.044180E-01  2.997154E-02  5.000000E-01  2.064825E-01  3.008328E-02  0.000000E+00  6.182244E-03  5.832653E-04 -9.305909E-19  3.955574E-01  0.000000E+00
  2.201880E-01  3.130596E-02  5.000000E-01  2.224118E-01  3.143119E-02  0.000000E+00  6.353847E-03  4.662375E-04 -1.816027E-18  4.016603E-01  0.000000E+00
  2.365750E-01  3.233053E-02  5.000000E-01  2.389643E-01  3.246610E-02  0.000000E+00  6.659989E-03  3.366295E-04 -2.390366E-18  4.025396E-01  0.000000E+00
  2.535710E-01  3.299662E-02  5.000000E-01  2.561319E-01  3.313892E-02  0.000000E+00  7.096799E-03  1.943044E-04 -8.907677E-19  3.969605E-01  0.000000E+00
  2.711570E-01  3.328389E-02  5.000000E-01  2.738955E-01  3.342909E-02  0.000000E+00  7.644681E-03  4.359010E-05  4.363475E-19  3.843251E-01  0.000000E+00
  2.893100E-01  3.320866E-02  5.000000E-01  2.922319E-01  3.335310E-02  0.000000E+00  8.267155E-03 -1.026423E-04  8.977543E-19  3.648588E-01  0.000000E+00
  3.080020E-01  3.283309E-02  5.000000E-01  3.111127E-01  3.297374E-02  0.000000E+00  8.903780E-03 -2.190684E-04  1.543012E-19  3.389893E-01  0.000000E+00
  3.271950E-01  3.227833E-02  5.000000E-01  3.304995E-01  3.241337E-02  0.000000E+00  9.464177E-03 -2.757592E-04 -8.789951E-19  3.080662E-01  0.000000E+00
  3.468470E-01  3.170121E-02  5.000000E-01  3.503500E-01  3.183043E-02  0.000000E+00  9.841921E-03 -2.593746E-04 -6.583622E-19  2.769443E-01  0.000000E+00
  3.669110E-01  3.123239E-02  5.000000E-01  3.706166E-01  3.135687E-02  0.000000E+00  9.929457E-03 -1.731732E-04 -1.052289E-18  2.508161E-01  0.000000E+00
  3.873360E-01  3.099832E-02  5.000000E-01  3.912479E-01  3.112044E-02  0.000000E+00  9.629111E-03 -2.683939E-05 -1.386417E-18  2.327691E-01  0.000000E+00
  4.080670E-01  3.113160E-02  5.000000E-01  4.121883E-01  3.125507E-02  0.000000E+00  8.890612E-03  1.573415E-04  6.216812E-19  2.258735E-01  0.000000E+00
  4.290470E-01  3.176273E-02  5.000000E-01  4.333802E-01  3.189257E-02  0.000000E+00  7.755110E-03  3.352589E-04  1.629094E-18  2.308104E-01  0.000000E+00
  4.502140E-01  3.300784E-02  5.000000E-01  4.547609E-01  3.315025E-02  0.000000E+00  6.426443E-03  4.303754E-04  1.519436E-18  2.545437E-01  0.000000E+00
  4.715070E-01  3.466974E-02  5.000000E-01  4.762690E-01  3.482893E-02  0.000000E+00  5.289323E-03  3.992681E-04  3.714769E-18  3.039203E-01  0.000000E+00
  4.928620E-01  3.622501E-02  5.000000E-01  4.978396E-01  3.639992E-02  0.000000E+00  4.729038E-03  2.770965E-04  3.020635E-18  3.614817E-01  0.000000E+00
  5.142140E-01  3.713918E-02  5.000000E-01  5.194073E-01  3.732332E-02  0.000000E+00  4.951655E-03  6.968975E-05  5.614921E-19  4.018989E-01  0.000000E+00
  5.355000E-01  3.689790E-02  5.000000E-01  5.409083E-01  3.707960E-02  0.000000E+00  6.003731E-03 -3.289074E-04 -1.121275E-18  4.184293E-01  0.000000E+00
  5.566560E-01  3.503194E-02  5.000000E-01  5.622779E-01  3.519479E-02  0.000000E+00  7.790177E-03 -1.013598E-03 -2.459711E-18  4.072911E-01  0.000000E+00
  4.727610E-01  7.543761E-02  5.000000E-01  4.775356E-01  7.600854E-02  0.000000E+00  1.401366E-02 -7.659617E-04 -2.612754E-18 -5.230870E-01  0.000000E+00
  4.515970E-01  7.653455E-02  5.000000E-01  4.561579E-01  7.711656E-02  0.000000E+00  1.329015E-02 -7.274991E-04 -7.868160E-21 -5.094033E-01  0.000000E+00
  4.305020E-01  7.774723E-02  5.000000E-01  4.348498E-01  7.834149E-02  0.000000E+00  1.244227E-02 -7.731849E-04  1.534295E-18 -5.191138E-01  0.000000E+00
  4.095340E-01  7.915373E-02  5.000000E-01  4.136701E-01  7.976219E-02  0.000000E+00  1.185978E-02 -8.306706E-04  6.150795E-19 -5.473065E-01  0.000000E+00
  3.887520E-01  8.067478E-02  5.000000E-01  3.926782E-01  8.129861E-02  0.000000E+00  1.170473E-02 -8.701762E-04 -1.002972E-19 -5.884633E-01  0.000000E+00
  3.682080E-01  8.222537E-02  5.000000E-01  3.719267E-01  8.286486E-02  0.000000E+00  1.197644E-02 -8.945817E-04 -2.780643E-19 -6.415830E-01  0.000000E+00
  3.479570E-01  8.372265E-02  5.000000E-01  3.514712E-01  8.437726E-02  0.000000E+00  1.261395E-02 -8.988530E-04  8.290556E-19 -7.056818E-01  0.000000E+00
  3.280470E-01  8.508963E-02  5.000000E-01  3.313601E-01  8.575804E-02  0.000000E+00  1.355063E-02 -8.666314E-04  9.705673E-19 -7.801523E-01  0.000000E+00
  3.085240E-01  8.625215E-02  5.000000E-01  3.116399E-01  8.693230E-02  0.000000E+00  1.473269E-02 -7.696883E-04 -4.058671E-19 -8.610404E-01  0.000000E+00
  2.894320E-01  8.712244E-02  5.000000E-01  2.923551E-01  8.781138E-02  0.000000E+00  1.609312E-02 -5.785837E-04 -2.080314E-18 -9.419568E-01  0.000000E+00
  2.708110E-01  8.762890E-02  5.000000E-01  2.735461E-01  8.832296E-02  0.000000E+00  1.754063E-02 -2.789046E-04 -2.388659E-18 -1.018988E+00  0.000000E+00
  2.526960E-01  8.772885E-02  5.000000E-01  2.552481E-01  8.842392E-02  0.000000E+00  1.899411E-02  1.284964E-04 -6.724079E-19 -1.092663E+00  0.000000E+00
  2.351200E-01  8.740864E-02  5.000000E-01  2.374946E-01  8.810048E-02  0.000000E+00  2.042457E-02  6.465167E-04 -7.327043E-19 -1.165138E+00  0.000000E+00
  2.181120E-01  8.665528E-02  5.000000E-01  2.203148E-01  8.733950E-02  0.000000E+00  2.185449E-02  1.298128E-03 -1.918666E-18 -1.235289E+00  0.000000E+00
  2.017010E-01  8.544744E-02  5.000000E-01  2.037381E-01  8.611946E-02  0.000000E+00  2.330364E-02  2.122440E-03 -1.888691E-18 -1.295719E+00  0.000000E+00
  1.859190E-01  8.375189E-02  5.000000E-01  1.877967E-01  8.440679E-02  0.000000E+00  2.471823E-02  3.142568E-03  1.323471E-18 -1.335562E+00  0.000000E+00
  1.707920E-01  8.154785E-02  5.000000E-01  1.725169E-01  8.218049E-02  0.000000E+00  2.595947E-02  4.322818E-03  3.832078E-18 -1.348619E+00  0.000000E+00
  1.563470E-01  7.885500E-02  5.000000E-01  1.579260E-01  7.946044E-02  0.000000E+00  2.688218E-02  5.584398E-03  3.025544E-18 -1.333717E+00  0.000000E+00
  1.426070E-01  7.571657E-02  5.000000E-01  1.440473E-01  7.629032E-02  0.000000E+00  2.739913E-02  6.843103E-03 -9.234208E-19 -1.292026E+00  0.000000E+00
  1.295900E-01  7.219139E-02  5.000000E-01  1.308988E-01  7.272953E-02  0.000000E+00  2.749326E-02  8.023105E-03 -4.551387E-18 -1.227426E+00  0.000000E+00
  1.173060E-01  6.834809E-02  5.000000E-01  1.184907E-01  6.884742E-02  0.000000E+00  2.721042E-02  9.073348E-03 -6.020078E-18 -1.144725E+00  0.000000E+00
  1.057600E-01  6.425710E-02  5.000000E-01  1.068281E-01  6.471511E-02  0.000000E+00  2.663079E-02  9.971905E-03 -3.856988E-18 -1.048347E+00  0.000000E+00
  9.495290E-02  5.998753E-02  5.000000E-01  9.591188E-02  6.040242E-02  0.000000E+00  2.584208E-02  1.071524E-02 -6.997504E-19 -9.425962E-01  0.000000E+00
  8.487680E-02  5.560598E-02  5.000000E-01  8.573401E-02  5.597663E-02  0.000000E+00  2.492548E-02  1.131396E-02  4.581336E-18 -8.304710E-01  0.000000E+00
  8.487680E-02  5.560598E-02  5.000000E-01  8.573401E-02  5.597663E-02  0.000000E+00  2.492548E-02  1.131396E-02  4.581336E-18 -8.304710E-01  0.000000E+00
  7.552090E-02  5.117476E-02  5.000000E-01  7.628362E-02  5.150065E-02  0.000000E+00  2.393576E-02  1.178193E-02  1.137714E-17 -7.125965E-01  0.000000E+00
  6.687020E-02  4.675001E-02  5.000000E-01  6.754556E-02  4.703121E-02  0.000000E+00  2.289352E-02  1.210983E-02  1.289090E-17 -5.904628E-01  0.000000E+00
  5.889940E-02  4.238876E-02  5.000000E-01  5.949425E-02  4.262592E-02  0.000000E+00  2.182027E-02  1.227745E-02  1.027866E-17 -4.690775E-01  0.000000E+00
  5.157140E-02  3.814644E-02  5.000000E-01  5.209225E-02  3.834075E-02  0.000000E+00  2.077984E-02  1.230956E-02  8.678410E-18 -3.545674E-01  0.000000E+00
  4.484650E-02  3.406787E-02  5.000000E-01  4.529943E-02  3.422099E-02  0.000000E+00  1.987453E-02  1.230598E-02  1.099308E-17 -2.500175E-01  0.000000E+00
  3.869820E-02  3.017988E-02  5.000000E-01  3.908903E-02  3.029373E-02  0.000000E+00  1.920306E-02  1.240556E-02  2.635582E-18 -1.542695E-01  0.000000E+00
  3.311550E-02  2.649468E-02  5.000000E-01  3.344995E-02  2.657131E-02  0.000000E+00  1.880681E-02  1.270965E-02 -1.579773E-17 -6.262161E-02  0.000000E+00
  2.809130E-02  2.302087E-02  5.000000E-01  2.837501E-02  2.306242E-02  0.000000E+00  1.856252E-02  1.318787E-02 -3.029285E-17  3.816218E-02  0.000000E+00
  2.362330E-02  1.976468E-02  5.000000E-01  2.386188E-02  1.977334E-02  0.000000E+00  1.815661E-02  1.353678E-02 -4.845430E-17  1.568698E-01  0.000000E+00
  1.966610E-02  1.674628E-02  5.000000E-01  1.986472E-02  1.672446E-02  0.000000E+00  1.744153E-02  1.333800E-02 -7.658427E-17  2.715000E-01  0.000000E+00
  1.609460E-02  1.400525E-02  5.000000E-01  1.625715E-02  1.395575E-02  0.000000E+00  1.670488E-02  1.267091E-02 -8.731355E-17  3.591972E-01  0.000000E+00
  1.282740E-02  1.155651E-02  5.000000E-01  1.295695E-02  1.148227E-02  0.000000E+00  1.639821E-02  1.214122E-02  6.142276E-17  4.234169E-01  0.000000E+00
  9.860990E-03  9.388189E-03  5.000000E-01  9.960582E-03  9.292056E-03  0.000000E+00  1.676855E-02  1.229912E-02  6.977981E-16  4.807621E-01  0.000000E+00
  7.251350E-03  7.469619E-03  5.000000E-01  7.324586E-03  7.354109E-03  0.000000E+00  1.775234E-02  1.332076E-02  2.099935E-15  5.439286E-01  0.000000E+00
  5.038810E-03  5.779022E-03  5.000000E-01  5.089700E-03  5.646438E-03  0.000000E+00  1.906172E-02  1.510641E-02  3.519611E-15  6.150851E-01  0.000000E+00
  3.239710E-03  4.306904E-03  5.000000E-01  3.272431E-03  4.159452E-03  0.000000E+00  2.001306E-02  1.734349E-02  1.191622E-15  6.997699E-01  0.000000E+00
  1.861880E-03  3.050157E-03  5.000000E-01  1.880685E-03  2.890013E-03  0.000000E+00  1.885617E-02  1.870588E-02 -1.356772E-14  8.095774E-01  0.000000E+00
  9.013910E-04  2.012257E-03  5.000000E-01  9.104957E-04  1.841631E-03  0.000000E+00  1.243771E-02  1.469216E-02 -5.215952E-14  9.499948E-01  0.000000E+00
  3.295630E-04  1.202571E-03  5.000000E-01  3.328925E-04  1.023767E-03  0.000000E+00 -4.937792E-04 -4.614657E-03 -1.177921E-13  1.069990E+00  0.000000E+00
  7.194000E-05  6.306939E-04  5.000000E-01  7.266768E-05  4.461147E-04  0.000000E+00 -1.141525E-02 -4.692089E-02 -1.887286E-13  1.006799E+00  0.000000E+00
  4.516100E-06  2.973953E-04  5.000000E-01  4.562834E-06  1.094499E-04  0.000000E+00 -1.045259E-02 -9.025100E-02 -2.219469E-13  6.942585E-01  0.000000E+00
 -1.112850E-09  1.890397E-04  5.000000E-01  0.000000E+00  0.000000E+00  0.000000E+00 -2.141163E-03 -9.315378E-02 -2.210351E-13  4.741833E-01  0.000000E+00