 Title = "ADflow Slice Data"
Variables =  "CoordinateX"  "CoordinateY"  "CoordinateZ"  "XoC"  "YoC"  "ZoC" "VelocityX" "VelocityY" "VelocityZ" "CoefPressure" "Mach" 
Zone T= "Slice_0001 None Absolute Regular z = 0.50000000"
 Nodes =          192  Elements=          184  ZONETYPE=FELINESEG
 DATAPACKING=POINT
  5.566560E-01  2.995145E-02  5.000000E-01  5.622776E-01  3.019327E-02  0.000000E+00  7.408391E-03  2.068775E-05  1.575081E-18  3.017326E-01  0.000000E+00
  5.776220E-01  2.993541E-02  5.000000E-01  5.834553E-01  3.017708E-02  0.000000E+00  7.436469E-03 -3.147174E-05 -2.548350E-19  3.007094E-01  0.000000E+00
  5.983370E-01  2.977613E-02  5.000000E-01  6.043795E-01  3.001618E-02  0.000000E+00  7.472611E-03 -8.239443E-05 -1.941401E-18  2.989515E-01  0.000000E+00
  6.187480E-01  2.948330E-02  5.000000E-01  6.249967E-01  2.972040E-02  0.000000E+00  7.514561E-03 -1.317982E-04 -2.841464E-18  2.966292E-01  0.000000E+00
  6.388030E-01  2.906791E-02  5.000000E-01  6.452542E-01  2.930082E-02  0.000000E+00  7.560579E-03 -1.797137E-04 -3.193558E-18  2.939005E-01  0.000000E+00
  6.584530E-01  2.854120E-02  5.000000E-01  6.651026E-01  2.876878E-02  0.000000E+00  7.608969E-03 -2.261061E-04 -2.107651E-18  2.908743E-01  0.000000E+00
  6.776550E-01  2.791494E-02  5.000000E-01  6.844985E-01  2.813620E-02  0.000000E+00  7.656890E-03 -2.705323E-04 -8.077153E-19  2.875278E-01  0.000000E+00
  6.963720E-01  2.720302E-02  5.000000E-01  7.034046E-01  2.741709E-02  0.000000E+00  7.700607E-03 -3.128806E-04 -8.081664E-19  2.839927E-01  0.000000E+00
  7.145680E-01  2.641681E-02  5.000000E-01  7.217843E-01  2.662294E-02  0.000000E+00  7.736733E-03 -3.534092E-04 -9.757335E-19  2.804585E-01  0.000000E+00
  7.322140E-01  2.556726E-02  5.000000E-01  7.396085E-01  2.576481E-02  0.000000E+00  7.762842E-03 -3.919439E-04 -1.395696E-18  2.769707E-01  0.000000E+00
  7.492860E-01  2.466548E-02  5.000000E-01  7.568529E-01  2.485392E-02  0.000000E+00  7.779395E-03 -4.280748E-04 -1.121892E-18  2.736538E-01  0.000000E+00
  7.657630E-01  2.372242E-02  5.000000E-01  7.734963E-01  2.390134E-02  0.000000E+00  7.790990E-03 -4.620239E-04 -1.008335E-18  2.703939E-01  0.000000E+00
  7.816300E-01  2.274821E-02  5.000000E-01  7.895236E-01  2.291729E-02  0.000000E+00  7.808529E-03 -4.986371E-04 -1.044571E-18  2.672586E-01  0.000000E+00
  7.968740E-01  2.173852E-02  5.000000E-01  8.049215E-01  2.189740E-02  0.000000E+00  7.855932E-03 -5.490642E-04 -4.936323E-20  2.652427E-01  0.000000E+00
  8.114890E-01  2.066472E-02  5.000000E-01  8.196841E-01  2.081276E-02  0.000000E+00  7.957335E-03 -6.170561E-04  3.458533E-19  2.631374E-01  0.000000E+00
  8.254710E-01  1.952321E-02  5.000000E-01  8.338073E-01  1.965972E-02  0.000000E+00  8.112322E-03 -6.942021E-04 -2.895659E-19  2.583339E-01  0.000000E+00
  8.388180E-01  1.832910E-02  5.000000E-01  8.472891E-01  1.845356E-02  0.000000E+00  8.300810E-03 -7.714840E-04 -1.743805E-18  2.507349E-01  0.000000E+00
  8.515320E-01  1.710444E-02  5.000000E-01  8.601315E-01  1.721653E-02  0.000000E+00  8.503474E-03 -8.436992E-04 -1.892582E-18  2.415202E-01  0.000000E+00
  8.636180E-01  1.587132E-02  5.000000E-01  8.723396E-01  1.597095E-02  0.000000E+00  8.708722E-03 -9.087243E-04 -7.621774E-19  2.315486E-01  0.000000E+00
  8.750810E-01  1.464927E-02  5.000000E-01  8.839183E-01  1.473656E-02  0.000000E+00  8.909730E-03 -9.660215E-04 -9.969157E-19  2.212024E-01  0.000000E+00
  8.859290E-01  1.345384E-02  5.000000E-01  8.948759E-01  1.352906E-02  0.000000E+00  9.102244E-03 -1.015859E-03 -1.003257E-18  2.107613E-01  0.000000E+00
  8.961710E-01  1.229668E-02  5.000000E-01  9.052213E-01  1.236021E-02  0.000000E+00  9.284281E-03 -1.058906E-03 -2.416007E-19  2.004441E-01  0.000000E+00
  9.058170E-01  1.118640E-02  5.000000E-01  9.149647E-01  1.123872E-02  0.000000E+00  9.455541E-03 -1.095973E-03 -3.443732E-19  1.903787E-01  0.000000E+00
  9.148770E-01  1.012910E-02  5.000000E-01  9.241162E-01  1.017074E-02  0.000000E+00  9.616448E-03 -1.127788E-03 -3.550386E-19  1.806194E-01  0.000000E+00
  9.148770E-01  1.012910E-02  5.000000E-01  9.241162E-01  1.017074E-02  0.000000E+00  9.616448E-03 -1.127788E-03 -3.550386E-19  1.806194E-01  0.000000E+00
  9.233640E-01  9.128950E-03  5.000000E-01  9.326889E-01  9.160492E-03  0.000000E+00  9.767858E-03 -1.155156E-03  7.501935E-21  1.712230E-01  0.000000E+00
  9.312880E-01  8.188617E-03  5.000000E-01  9.406930E-01  8.210663E-03  0.000000E+00  9.911165E-03 -1.178898E-03 -3.269345E-19  1.622358E-01  0.000000E+00
  9.386620E-01  7.309497E-03  5.000000E-01  9.481414E-01  7.322664E-03  0.000000E+00  1.004787E-02 -1.199738E-03 -1.222988E-18  1.536515E-01  0.000000E+00
  9.454960E-01  6.492257E-03  5.000000E-01  9.550444E-01  6.497171E-03  0.000000E+00  1.017903E-02 -1.218193E-03  1.276844E-18  1.454392E-01  0.000000E+00
  9.518040E-01  5.736767E-03  5.000000E-01  9.614161E-01  5.734052E-03  0.000000E+00  1.030585E-02 -1.234805E-03  7.405617E-18  1.376089E-01  0.000000E+00
  9.575950E-01  5.042637E-03  5.000000E-01  9.672656E-01  5.032912E-03  0.000000E+00  1.043050E-02 -1.250203E-03  8.182868E-18  1.301495E-01  0.000000E+00
  9.628810E-01  4.409067E-03  5.000000E-01  9.726050E-01  4.392944E-03  0.000000E+00  1.055683E-02 -1.265088E-03 -1.590817E-17  1.230312E-01  0.000000E+00
  9.676710E-01  3.835152E-03  5.000000E-01  9.774434E-01  3.813232E-03  0.000000E+00  1.069156E-02 -1.280501E-03 -7.215963E-17  1.162458E-01  0.000000E+00
  9.719750E-01  3.319865E-03  5.000000E-01  9.817908E-01  3.292742E-03  0.000000E+00  1.084349E-02 -1.297583E-03 -8.245076E-17  1.097857E-01  0.000000E+00
  9.758020E-01  2.862134E-03  5.000000E-01  9.856565E-01  2.830388E-03  0.000000E+00  1.101631E-02 -1.316895E-03  9.604083E-17  1.036602E-01  0.000000E+00
  9.791590E-01  2.460970E-03  5.000000E-01  9.890474E-01  2.425173E-03  0.000000E+00  1.118854E-02 -1.336176E-03  3.642070E-16  9.773369E-02  0.000000E+00
  9.820540E-01  2.115391E-03  5.000000E-01  9.919716E-01  2.076103E-03  0.000000E+00  1.129429E-02 -1.348617E-03  1.814662E-16  9.234415E-02  0.000000E+00
  9.844930E-01  1.824540E-03  5.000000E-01  9.944353E-01  1.782316E-03  0.000000E+00  1.121118E-02 -1.336590E-03 -6.013435E-16  8.837316E-02  0.000000E+00
  9.864820E-01  1.587632E-03  5.000000E-01  9.964443E-01  1.543015E-03  0.000000E+00  1.063293E-02 -1.254993E-03 -5.693809E-16  8.220949E-02  0.000000E+00
  9.880240E-01  1.404067E-03  5.000000E-01  9.980019E-01  1.357596E-03  0.000000E+00  9.079815E-03 -1.088928E-03  1.810776E-15  6.792580E-02  0.000000E+00
  9.891220E-01  1.273309E-03  5.000000E-01  9.991110E-01  1.225518E-03  0.000000E+00  8.343935E-03 -1.106665E-03  3.862224E-15  8.458981E-02  0.000000E+00
  9.897810E-01  1.194992E-03  5.000000E-01  9.997767E-01  1.146410E-03  0.000000E+00  1.563788E-02 -6.649372E-04 -2.283750E-15  1.780958E-01  0.000000E+00
  9.900000E-01  1.168923E-03  5.000000E-01  9.999979E-01  1.120078E-03  0.000000E+00  1.309011E-02 -1.661316E-03 -1.756046E-14 -6.190459E-02  0.000000E+00
  9.900000E-01  1.355144E-03  5.000000E-01  9.999979E-01  1.308179E-03  0.000000E+00  1.212005E-03 -1.360394E-02 -2.575512E-14 -2.045364E-01  0.000000E+00
  9.900000E-01  1.541355E-03  5.000000E-01  9.999979E-01  1.496271E-03  0.000000E+00 -7.382573E-04 -1.429391E-02 -2.097701E-14 -2.463052E-02  0.000000E+00
  9.900000E-01  1.727576E-03  5.000000E-01  9.999979E-01  1.684372E-03  0.000000E+00 -4.675716E-04  3.462503E-03 -1.068578E-14 -3.389826E-02  0.000000E+00
  9.900000E-01  1.913796E-03  5.000000E-01  9.999979E-01  1.872473E-03  0.000000E+00  8.128622E-04  3.548610E-03  1.177584E-15 -1.578095E-01  0.000000E+00
  9.900000E-01  2.100017E-03  5.000000E-01  9.999979E-01  2.060575E-03  0.000000E+00  8.234182E-03 -4.608072E-03  7.565802E-15 -5.971473E-02  0.000000E+00
  9.900000E-01  2.100017E-03  5.000000E-01  9.999979E-01  2.060575E-03  0.000000E+00  8.234182E-03 -4.608072E-03  7.565802E-15 -5.971473E-02  0.000000E+00
  9.897920E-01  2.143405E-03  5.000000E-01  9.997878E-01  2.104400E-03  0.000000E+00  9.101018E-03 -2.732229E-03  6.339332E-15  8.422254E-02  0.000000E+00
  9.891660E-01  2.273477E-03  5.000000E-01  9.991555E-01  2.235787E-03  0.000000E+00  3.397468E-03 -6.166150E-04  2.722129E-15  1.255586E-02  0.000000E+00
  9.881230E-01  2.489977E-03  5.000000E-01  9.981019E-01  2.454473E-03  0.000000E+00  3.262885E-03 -6.721153E-04  3.207259E-16  4.123670E-05  0.000000E+00
  9.866580E-01  2.792497E-03  5.000000E-01  9.966221E-01  2.760048E-03  0.000000E+00  3.866975E-03 -8.049047E-04 -5.930690E-16  6.438499E-03  0.000000E+00
  9.847700E-01  3.180428E-03  5.000000E-01  9.947151E-01  3.151897E-03  0.000000E+00  4.040679E-03 -8.272461E-04 -4.931212E-16  4.534782E-03  0.000000E+00
  9.824550E-01  3.653014E-03  5.000000E-01  9.923767E-01  3.629255E-03  0.000000E+00  4.103931E-03 -8.334116E-04 -9.988110E-17 -8.863751E-04  0.000000E+00
  9.797070E-01  4.209307E-03  5.000000E-01  9.896009E-01  4.191166E-03  0.000000E+00  4.196990E-03 -8.457188E-04  9.482483E-17 -6.900611E-03  0.000000E+00
  9.765220E-01  4.848191E-03  5.000000E-01  9.863838E-01  4.836502E-03  0.000000E+00  4.331376E-03 -8.641528E-04  7.484803E-17 -1.385799E-02  0.000000E+00
  9.728930E-01  5.568388E-03  5.000000E-01  9.827181E-01  5.563972E-03  0.000000E+00  4.505763E-03 -8.887032E-04  1.107432E-17 -2.183781E-02  0.000000E+00
  9.688130E-01  6.368425E-03  5.000000E-01  9.785969E-01  6.372089E-03  0.000000E+00  4.713931E-03 -9.180219E-04 -1.380244E-17 -3.064875E-02  0.000000E+00
  9.642740E-01  7.246697E-03  5.000000E-01  9.740121E-01  7.259230E-03  0.000000E+00  4.945895E-03 -9.498576E-04 -9.706058E-18 -4.010607E-02  0.000000E+00
  9.592670E-01  8.201446E-03  5.000000E-01  9.689545E-01  8.223621E-03  0.000000E+00  5.192708E-03 -9.823563E-04 -1.970595E-18 -5.013209E-02  0.000000E+00
  9.537850E-01  9.230773E-03  5.000000E-01  9.634171E-01  9.263343E-03  0.000000E+00  5.447991E-03 -1.014091E-03  1.132058E-18 -6.056746E-02  0.000000E+00
  9.478160E-01  1.033267E-02  5.000000E-01  9.573879E-01  1.037636E-02  0.000000E+00  5.706738E-03 -1.044062E-03  1.021680E-18 -7.130303E-02  0.000000E+00
  9.413520E-01  1.150512E-02  5.000000E-01  9.508586E-01  1.156066E-02  0.000000E+00  5.965175E-03 -1.071641E-03 -6.974439E-19 -8.223478E-02  0.000000E+00
  9.343800E-01  1.274614E-02  5.000000E-01  9.438162E-01  1.281421E-02  0.000000E+00  6.219950E-03 -1.096358E-03 -1.727940E-18 -9.323465E-02  0.000000E+00
  9.268920E-01  1.405355E-02  5.000000E-01  9.362526E-01  1.413483E-02  0.000000E+00  6.468017E-03 -1.117923E-03 -1.031308E-18 -1.042368E-01  0.000000E+00
  9.188750E-01  1.542565E-02  5.000000E-01  9.281546E-01  1.552078E-02  0.000000E+00  6.706706E-03 -1.136169E-03 -1.183348E-19 -1.151327E-01  0.000000E+00
  9.103190E-01  1.686074E-02  5.000000E-01  9.195122E-01  1.697037E-02  0.000000E+00  6.933406E-03 -1.151124E-03  1.292330E-19 -1.258636E-01  0.000000E+00
  9.012130E-01  1.835758E-02  5.000000E-01  9.103142E-01  1.848232E-02  0.000000E+00  7.145893E-03 -1.162868E-03 -3.430692E-19 -1.363685E-01  0.000000E+00
  8.915460E-01  1.991526E-02  5.000000E-01  9.005496E-01  2.005573E-02  0.000000E+00  7.342376E-03 -1.171735E-03 -3.046923E-19 -1.466372E-01  0.000000E+00
  8.813080E-01  2.153364E-02  5.000000E-01  8.902082E-01  2.169046E-02  0.000000E+00  7.521807E-03 -1.178249E-03 -5.771984E-19 -1.566789E-01  0.000000E+00
  8.704900E-01  2.321311E-02  5.000000E-01  8.792810E-01  2.338689E-02  0.000000E+00  7.683856E-03 -1.183045E-03 -2.909626E-19 -1.665225E-01  0.000000E+00
  8.704900E-01  2.321311E-02  5.000000E-01  8.792810E-01  2.338689E-02  0.000000E+00  7.683856E-03 -1.183045E-03 -2.909626E-19 -1.665225E-01  0.000000E+00
  8.590830E-01  2.495506E-02  5.000000E-01  8.677588E-01  2.514643E-02  0.000000E+00  7.829277E-03 -1.187116E-03 -7.229452E-19 -1.762909E-01  0.000000E+00
  8.470810E-01  2.676208E-02  5.000000E-01  8.556356E-01  2.697170E-02  0.000000E+00  7.960660E-03 -1.191570E-03 -1.687620E-18 -1.861766E-01  0.000000E+00
  8.344780E-01  2.863769E-02  5.000000E-01  8.429053E-01  2.886625E-02  0.000000E+00  8.082571E-03 -1.197456E-03 -9.245309E-19 -1.964093E-01  0.000000E+00
  8.212700E-01  3.058580E-02  5.000000E-01  8.295639E-01  3.083403E-02  0.000000E+00  8.201946E-03 -1.205726E-03 -1.243811E-18 -2.073878E-01  0.000000E+00
  8.074550E-01  3.260978E-02  5.000000E-01  8.156094E-01  3.287845E-02  0.000000E+00  8.328925E-03 -1.216950E-03 -1.289978E-18 -2.196292E-01  0.000000E+00
  7.930350E-01  3.471075E-02  5.000000E-01  8.010438E-01  3.500064E-02  0.000000E+00  8.474694E-03 -1.230480E-03  4.544713E-21 -2.332915E-01  0.000000E+00
  7.780130E-01  3.688450E-02  5.000000E-01  7.858700E-01  3.719634E-02  0.000000E+00  8.645536E-03 -1.244339E-03 -2.976003E-19 -2.479564E-01  0.000000E+00
  7.623950E-01  3.912059E-02  5.000000E-01  7.700943E-01  3.945501E-02  0.000000E+00  8.840458E-03 -1.257299E-03 -9.643716E-19 -2.634401E-01  0.000000E+00
  7.461930E-01  4.140960E-02  5.000000E-01  7.537287E-01  4.176714E-02  0.000000E+00  9.055910E-03 -1.269061E-03  1.160809E-19 -2.798216E-01  0.000000E+00
  7.294180E-01  4.374160E-02  5.000000E-01  7.367843E-01  4.412269E-02  0.000000E+00  9.288578E-03 -1.279004E-03  1.370722E-18 -2.969806E-01  0.000000E+00
  7.120900E-01  4.610526E-02  5.000000E-01  7.192813E-01  4.651022E-02  0.000000E+00  9.534908E-03 -1.286144E-03  2.522301E-18 -3.147719E-01  0.000000E+00
  6.942280E-01  4.848814E-02  5.000000E-01  7.012389E-01  4.891717E-02  0.000000E+00  9.791377E-03 -1.289673E-03  1.788945E-18 -3.330694E-01  0.000000E+00
  6.758590E-01  5.087734E-02  5.000000E-01  6.826844E-01  5.133049E-02  0.000000E+00  1.005477E-02 -1.289214E-03  3.210505E-19 -3.517614E-01  0.000000E+00
  6.570120E-01  5.325996E-02  5.000000E-01  6.636471E-01  5.373717E-02  0.000000E+00  1.032240E-02 -1.284647E-03  1.006200E-18 -3.707777E-01  0.000000E+00
  6.377220E-01  5.562363E-02  5.000000E-01  6.441623E-01  5.612472E-02  0.000000E+00  1.059268E-02 -1.276221E-03  5.656697E-19 -3.901710E-01  0.000000E+00
  6.180260E-01  5.795719E-02  5.000000E-01  6.242674E-01  5.848184E-02  0.000000E+00  1.086586E-02 -1.264197E-03 -7.897175E-19 -4.100639E-01  0.000000E+00
  5.979670E-01  6.024916E-02  5.000000E-01  6.040058E-01  6.079696E-02  0.000000E+00  1.114414E-02 -1.248593E-03 -7.505024E-19 -4.306695E-01  0.000000E+00
  5.775910E-01  6.248773E-02  5.000000E-01  5.834240E-01  6.305814E-02  0.000000E+00  1.143145E-02 -1.229130E-03 -1.088691E-18 -4.521924E-01  0.000000E+00
  5.569470E-01  6.466017E-02  5.000000E-01  5.625715E-01  6.525252E-02  0.000000E+00  1.173170E-02 -1.204739E-03 -1.738086E-18 -4.745550E-01  0.000000E+00
  5.360860E-01  6.675070E-02  5.000000E-01  5.414999E-01  6.736416E-02  0.000000E+00  1.204642E-02 -1.174244E-03 -1.124320E-18 -4.976314E-01  0.000000E+00
  5.150640E-01  6.874374E-02  5.000000E-01  5.202656E-01  6.937732E-02  0.000000E+00  1.237514E-02 -1.137033E-03 -3.208926E-21 -5.214529E-01  0.000000E+00
  4.939370E-01  7.062459E-02  5.000000E-01  4.989252E-01  7.127717E-02  0.000000E+00  1.271706E-02 -1.092505E-03  2.393653E-19 -5.460231E-01  0.000000E+00
  4.727610E-01  7.237941E-02  5.000000E-01  4.775354E-01  7.304971E-02  0.000000E+00  1.307138E-02 -1.039977E-03  1.031218E-19 -5.713256E-01  0.000000E+00
  5.770140E-06 -5.187657E-05  5.000000E-01  5.829536E-06 -1.130506E-04  0.000000E+00  3.752959E-03 -2.179905E-02 -5.039824E-13  9.104383E-01  0.000000E+00
  9.104010E-05 -3.816510E-04  5.000000E-01  9.196063E-05 -4.461554E-04  0.000000E+00  1.999888E-02 -3.479777E-02 -4.668214E-13  9.169002E-01  0.000000E+00
  4.796980E-04 -8.882008E-04  5.000000E-01  4.845435E-04 -9.578208E-04  0.000000E+00  3.856801E-02 -3.412640E-02 -3.335099E-13  6.046765E-01  0.000000E+00
  1.456590E-03 -1.466527E-03  5.000000E-01  1.471301E-03 -1.541987E-03  0.000000E+00  4.179031E-02 -1.998533E-02 -1.668792E-13  2.725359E-01  0.000000E+00
  3.096410E-03 -2.015870E-03  5.000000E-01  3.127681E-03 -2.096878E-03  0.000000E+00  3.422992E-02 -9.818310E-03 -4.699268E-14  1.586991E-01  0.000000E+00
  5.335170E-03 -2.514938E-03  5.000000E-01  5.389050E-03 -2.600986E-03  0.000000E+00  2.736078E-02 -5.286908E-03  3.633071E-15  1.419504E-01  0.000000E+00
  8.129670E-03 -2.958057E-03  5.000000E-01  8.211772E-03 -3.048581E-03  0.000000E+00  2.316178E-02 -3.158352E-03  1.028428E-14  1.204712E-01  0.000000E+00
  1.145600E-02 -3.327469E-03  5.000000E-01  1.157169E-02 -3.421723E-03  0.000000E+00  1.998294E-02 -1.742541E-03  4.362467E-15  8.458276E-02  0.000000E+00
  1.529970E-02 -3.556680E-03  5.000000E-01  1.545421E-02 -3.653249E-03  0.000000E+00  1.658505E-02 -5.465182E-04  6.817741E-16  4.630266E-02  0.000000E+00
  1.962420E-02 -3.553916E-03  5.000000E-01  1.982238E-02 -3.650457E-03  0.000000E+00  1.304572E-02  2.392538E-04  3.150436E-16  3.834567E-02  0.000000E+00
  2.439810E-02 -3.342065E-03  5.000000E-01  2.464449E-02 -3.436466E-03  0.000000E+00  1.066021E-02  4.666238E-04  8.030760E-16  9.147334E-02  0.000000E+00
  2.966100E-02 -3.112290E-03  5.000000E-01  2.996054E-02 -3.204370E-03  0.000000E+00  1.023288E-02  3.998016E-04  9.342282E-16  1.569121E-01  0.000000E+00
  3.543640E-02 -2.928093E-03  5.000000E-01  3.579427E-02 -3.018314E-03  0.000000E+00  1.097357E-02  3.137732E-04  6.901852E-16  1.751213E-01  0.000000E+00
  4.172970E-02 -2.770444E-03  5.000000E-01  4.215112E-02 -2.859073E-03  0.000000E+00  1.173442E-02  2.904816E-04  3.359489E-16  1.612750E-01  0.000000E+00
  4.854440E-02 -2.600845E-03  5.000000E-01  4.903464E-02 -2.687761E-03  0.000000E+00  1.205629E-02  3.419788E-04  5.482782E-17  1.425402E-01  0.000000E+00
  5.588220E-02 -2.365546E-03  5.000000E-01  5.644655E-02 -2.450086E-03  0.000000E+00  1.200448E-02  4.329041E-04 -9.146092E-17  1.305938E-01  0.000000E+00
  6.375220E-02 -2.047946E-03  5.000000E-01  6.439603E-02 -2.129278E-03  0.000000E+00  1.181348E-02  5.096319E-04 -1.214294E-16  1.285454E-01  0.000000E+00
  7.217040E-02 -1.660350E-03  5.000000E-01  7.289924E-02 -1.737768E-03  0.000000E+00  1.166970E-02  5.528376E-04 -8.992283E-17  1.318523E-01  0.000000E+00
  8.115500E-02 -1.223470E-03  5.000000E-01  8.197457E-02 -1.296476E-03  0.000000E+00  1.162275E-02  5.770817E-04 -4.677745E-17  1.340038E-01  0.000000E+00
  9.072040E-02 -7.400933E-04  5.000000E-01  9.163657E-02 -8.082175E-04  0.000000E+00  1.162250E-02  6.034565E-04 -1.571158E-17  1.319285E-01  0.000000E+00
  1.008780E-01 -1.987294E-04  5.000000E-01  1.018968E-01 -2.613864E-04  0.000000E+00  1.160939E-02  6.394433E-04 -8.685450E-19  1.277030E-01  0.000000E+00
  1.116380E-01  4.136716E-04  5.000000E-01  1.127654E-01  3.571991E-04  0.000000E+00  1.155362E-02  6.850216E-04  3.495886E-18  1.237551E-01  0.000000E+00
  1.230100E-01  1.115204E-03  5.000000E-01  1.242523E-01  1.065816E-03  0.000000E+00  1.143674E-02  7.397339E-04  3.603584E-18  1.207998E-01  0.000000E+00
  1.350030E-01  1.927187E-03  5.000000E-01  1.363664E-01  1.885999E-03  0.000000E+00  1.123800E-02  8.014501E-04  2.015740E-18  1.194243E-01  0.000000E+00
  1.350030E-01  1.927187E-03  5.000000E-01  1.363664E-01  1.885999E-03  0.000000E+00  1.123800E-02  8.014501E-04  2.015740E-18  1.194243E-01  0.000000E+00
  1.476220E-01  2.873668E-03  5.000000E-01  1.491128E-01  2.842039E-03  0.000000E+00  1.094035E-02  8.661598E-04  6.961548E-19  1.205790E-01  0.000000E+00
  1.608730E-01  3.979908E-03  5.000000E-01  1.624976E-01  3.959450E-03  0.000000E+00  1.054179E-02  9.282177E-04  6.373120E-19  1.254040E-01  0.000000E+00
  1.747560E-01  5.268722E-03  5.000000E-01  1.765208E-01  5.261280E-03  0.000000E+00  1.006261E-02  9.798923E-04  1.425382E-18  1.347461E-01  0.000000E+00
  1.892730E-01  6.751576E-03  5.000000E-01  1.911844E-01  6.759109E-03  0.000000E+00  9.546167E-03  1.009645E-03  3.084186E-18  1.489098E-01  0.000000E+00
  2.044180E-01  8.412815E-03  5.000000E-01  2.064824E-01  8.437124E-03  0.000000E+00  9.060320E-03  1.003938E-03  3.292629E-18  1.688319E-01  0.000000E+00
  2.201880E-01  1.018044E-02  5.000000E-01  2.224116E-01  1.022260E-02  0.000000E+00  8.665960E-03  9.649262E-04  1.549816E-18  1.919501E-01  0.000000E+00
  2.365750E-01  1.199016E-02  5.000000E-01  2.389641E-01  1.205060E-02  0.000000E+00  8.370652E-03  9.108390E-04  1.158050E-18  2.122306E-01  0.000000E+00
  2.535710E-01  1.380912E-02  5.000000E-01  2.561318E-01  1.388792E-02  0.000000E+00  8.145039E-03  8.531779E-04  2.601920E-18  2.280709E-01  0.000000E+00
  2.711570E-01  1.561055E-02  5.000000E-01  2.738954E-01  1.570755E-02  0.000000E+00  7.966789E-03  7.937481E-04  2.856831E-18  2.414062E-01  0.000000E+00
  2.893100E-01  1.736807E-02  5.000000E-01  2.922317E-01  1.748282E-02  0.000000E+00  7.830005E-03  7.322568E-04  2.649953E-18  2.534152E-01  0.000000E+00
  3.080020E-01  1.905356E-02  5.000000E-01  3.111125E-01  1.918533E-02  0.000000E+00  7.730899E-03  6.698704E-04  3.282962E-18  2.637638E-01  0.000000E+00
  3.271950E-01  2.064775E-02  5.000000E-01  3.304993E-01  2.079562E-02  0.000000E+00  7.660282E-03  6.082974E-04  3.082986E-18  2.720473E-01  0.000000E+00
  3.468470E-01  2.213590E-02  5.000000E-01  3.503498E-01  2.229880E-02  0.000000E+00  7.607656E-03  5.485189E-04  2.103443E-18  2.785882E-01  0.000000E+00
  3.669110E-01  2.350930E-02  5.000000E-01  3.706164E-01  2.368607E-02  0.000000E+00  7.564506E-03  4.914734E-04  2.142878E-18  2.837231E-01  0.000000E+00
  3.873360E-01  2.476474E-02  5.000000E-01  3.912477E-01  2.495419E-02  0.000000E+00  7.525186E-03  4.371967E-04  1.443587E-18  2.878120E-01  0.000000E+00
  4.080670E-01  2.589914E-02  5.000000E-01  4.121880E-01  2.610004E-02  0.000000E+00  7.488171E-03  3.844216E-04  1.005846E-18  2.913444E-01  0.000000E+00
  4.290470E-01  2.690507E-02  5.000000E-01  4.333799E-01  2.711614E-02  0.000000E+00  7.454944E-03  3.320803E-04  2.435970E-18  2.945033E-01  0.000000E+00
  4.502140E-01  2.777555E-02  5.000000E-01  4.547607E-01  2.799540E-02  0.000000E+00  7.427026E-03  2.800760E-04  3.030475E-18  2.971266E-01  0.000000E+00
  4.715070E-01  2.850545E-02  5.000000E-01  4.762687E-01  2.873267E-02  0.000000E+00  7.405195E-03  2.285360E-04  2.483779E-18  2.991287E-01  0.000000E+00
  4.928620E-01  2.909128E-02  5.000000E-01  4.978393E-01  2.932442E-02  0.000000E+00  7.390534E-03  1.772617E-04  1.991816E-18  3.005655E-01  0.000000E+00
  5.142140E-01  2.952973E-02  5.000000E-01  5.194070E-01  2.976730E-02  0.000000E+00  7.385052E-03  1.256532E-04  1.634893E-18  3.015257E-01  0.000000E+00
  5.355000E-01  2.981702E-02  5.000000E-01  5.409079E-01  3.005749E-02  0.000000E+00  7.390800E-03  7.334565E-05  1.821730E-18  3.019666E-01  0.000000E+00
  5.566560E-01  2.995145E-02  5.000000E-01  5.622776E-01  3.019327E-02  0.000000E+00  7.408391E-03  2.068775E-05  1.575081E-18  3.017326E-01  0.000000E+00
  4.727610E-01  7.237941E-02  5.000000E-01  4.775354E-01  7.304971E-02  0.000000E+00  1.307138E-02 -1.039977E-03  1.031218E-19 -5.713256E-01  0.000000E+00
  4.515970E-01  7.399509E-02  5.000000E-01  4.561576E-01  7.468170E-02  0.000000E+00  1.343743E-02 -9.787133E-04 -6.778788E-20 -5.972948E-01  0.000000E+00
  4.305020E-01  7.545967E-02  5.000000E-01  4.348496E-01  7.616107E-02  0.000000E+00  1.381479E-02 -9.081311E-04 -3.359807E-20 -6.239870E-01  0.000000E+00
  4.095340E-01  7.676262E-02  5.000000E-01  4.136698E-01  7.747719E-02  0.000000E+00  1.420517E-02 -8.281755E-04  8.585238E-19 -6.519331E-01  0.000000E+00
  3.887520E-01  7.789629E-02  5.000000E-01  3.926780E-01  7.862231E-02  0.000000E+00  1.461516E-02 -7.376638E-04  2.361568E-18 -6.817393E-01  0.000000E+00
  3.682080E-01  7.885148E-02  5.000000E-01  3.719265E-01  7.958714E-02  0.000000E+00  1.505409E-02 -6.328651E-04  4.701537E-18 -7.134667E-01  0.000000E+00
  3.479570E-01  7.961517E-02  5.000000E-01  3.514710E-01  8.035854E-02  0.000000E+00  1.552805E-02 -5.089564E-04  6.749735E-18 -7.467026E-01  0.000000E+00
  3.280470E-01  8.017249E-02  5.000000E-01  3.313599E-01  8.092149E-02  0.000000E+00  1.603718E-02 -3.627890E-04  7.846788E-18 -7.811397E-01  0.000000E+00
  3.085240E-01  8.051255E-02  5.000000E-01  3.116397E-01  8.126498E-02  0.000000E+00  1.657893E-02 -1.929224E-04  8.418077E-18 -8.167269E-01  0.000000E+00
  2.894320E-01  8.062826E-02  5.000000E-01  2.923549E-01  8.138186E-02  0.000000E+00  1.715205E-02  3.475371E-06  9.149371E-18 -8.535319E-01  0.000000E+00
  2.708110E-01  8.051225E-02  5.000000E-01  2.735459E-01  8.126469E-02  0.000000E+00  1.776202E-02  2.309792E-04  9.666414E-18 -8.930437E-01  0.000000E+00
  2.526960E-01  8.015712E-02  5.000000E-01  2.552479E-01  8.090597E-02  0.000000E+00  1.843702E-02  4.968334E-04  9.198604E-18 -9.389462E-01  0.000000E+00
  2.351200E-01  7.955730E-02  5.000000E-01  2.374944E-01  8.030009E-02  0.000000E+00  1.923410E-02  8.267377E-04  7.903513E-18 -9.918471E-01  0.000000E+00
  2.181120E-01  7.868226E-02  5.000000E-01  2.203147E-01  7.941621E-02  0.000000E+00  2.019144E-02  1.266628E-03  5.151812E-18 -1.045629E+00  0.000000E+00
  2.017010E-01  7.747743E-02  5.000000E-01  2.037380E-01  7.819921E-02  0.000000E+00  2.127540E-02  1.844081E-03  2.704432E-18 -1.094574E+00  0.000000E+00
  1.859190E-01  7.591058E-02  5.000000E-01  1.877966E-01  7.661654E-02  0.000000E+00  2.240800E-02  2.559797E-03  1.765216E-18 -1.135817E+00  0.000000E+00
  1.707920E-01  7.396726E-02  5.000000E-01  1.725168E-01  7.465359E-02  0.000000E+00  2.350992E-02  3.411454E-03 -7.118785E-19 -1.165062E+00  0.000000E+00
  1.563470E-01  7.164187E-02  5.000000E-01  1.579259E-01  7.230472E-02  0.000000E+00  2.449905E-02  4.389982E-03 -5.601682E-18 -1.176973E+00  0.000000E+00
  1.426070E-01  6.893951E-02  5.000000E-01  1.440472E-01  6.957507E-02  0.000000E+00  2.528857E-02  5.463586E-03 -9.157117E-18 -1.167645E+00  0.000000E+00
  1.295900E-01  6.588229E-02  5.000000E-01  1.308987E-01  6.648698E-02  0.000000E+00  2.580484E-02  6.576398E-03 -9.867875E-18 -1.136085E+00  0.000000E+00
  1.173060E-01  6.251025E-02  5.000000E-01  1.184907E-01  6.308088E-02  0.000000E+00  2.600929E-02  7.667244E-03 -7.690641E-18 -1.083344E+00  0.000000E+00
  1.057600E-01  5.887360E-02  5.000000E-01  1.068281E-01  5.940751E-02  0.000000E+00  2.590247E-02  8.684664E-03 -5.274173E-18 -1.011647E+00  0.000000E+00
  9.495290E-02  5.502899E-02  5.000000E-01  9.591182E-02  5.552407E-02  0.000000E+00  2.551828E-02  9.588674E-03  3.373179E-19 -9.246500E-01  0.000000E+00
  8.487680E-02  5.103752E-02  5.000000E-01  8.573396E-02  5.149230E-02  0.000000E+00  2.491416E-02  1.035721E-02  1.464137E-17 -8.256191E-01  0.000000E+00
  8.487680E-02  5.103752E-02  5.000000E-01  8.573396E-02  5.149230E-02  0.000000E+00  2.491416E-02  1.035721E-02  1.464137E-17 -8.256191E-01  0.000000E+00
  7.552090E-02  4.696066E-02  5.000000E-01  7.628358E-02  4.737426E-02  0.000000E+00  2.414077E-02  1.097939E-02  2.848480E-17 -7.157150E-01  0.000000E+00
  6.687020E-02  4.285690E-02  5.000000E-01  6.754551E-02  4.322906E-02  0.000000E+00  2.322235E-02  1.142529E-02  3.829609E-17 -5.976008E-01  0.000000E+00
  5.889940E-02  3.878971E-02  5.000000E-01  5.949422E-02  3.912080E-02  0.000000E+00  2.219271E-02  1.165981E-02  4.141882E-17 -4.783082E-01  0.000000E+00
  5.157140E-02  3.482347E-02  5.000000E-01  5.209221E-02  3.511449E-02  0.000000E+00  2.114125E-02  1.170755E-02  3.672711E-17 -3.660014E-01  0.000000E+00
  4.484650E-02  3.101084E-02  5.000000E-01  4.529940E-02  3.126336E-02  0.000000E+00  2.020431E-02  1.168492E-02  3.573352E-17 -2.649024E-01  0.000000E+00
  3.869820E-02  2.738210E-02  5.000000E-01  3.908901E-02  2.759798E-02  0.000000E+00  1.951260E-02  1.175365E-02  3.137579E-17 -1.740242E-01  0.000000E+00
  3.311550E-02  2.394899E-02  5.000000E-01  3.344993E-02  2.413019E-02  0.000000E+00  1.912538E-02  1.202986E-02  1.510839E-17 -8.810877E-02  0.000000E+00
  2.809130E-02  2.071886E-02  5.000000E-01  2.837499E-02  2.086744E-02  0.000000E+00  1.889793E-02  1.247629E-02 -7.882059E-18  8.190754E-03  0.000000E+00
  2.362330E-02  1.769566E-02  5.000000E-01  2.386187E-02  1.781372E-02  0.000000E+00  1.844026E-02  1.274051E-02 -5.659360E-17  1.249974E-01  0.000000E+00
  1.966610E-02  1.490336E-02  5.000000E-01  1.986471E-02  1.499322E-02  0.000000E+00  1.753884E-02  1.234067E-02 -1.375063E-16  2.365499E-01  0.000000E+00
  1.609460E-02  1.239510E-02  5.000000E-01  1.625714E-02  1.245962E-02  0.000000E+00  1.651141E-02  1.137261E-02 -1.294432E-16  3.156419E-01  0.000000E+00
  1.282740E-02  1.019019E-02  5.000000E-01  1.295694E-02  1.023245E-02  0.000000E+00  1.593146E-02  1.053728E-02  4.036805E-16  3.648388E-01  0.000000E+00
  9.860990E-03  8.269379E-03  5.000000E-01  9.960576E-03  8.292240E-03  0.000000E+00  1.620315E-02  1.047333E-02  2.282954E-15  4.021643E-01  0.000000E+00
  7.251350E-03  6.587047E-03  5.000000E-01  7.324582E-03  6.592918E-03  0.000000E+00  1.740997E-02  1.143489E-02  5.808527E-15  4.421781E-01  0.000000E+00
  5.038810E-03  5.110048E-03  5.000000E-01  5.089697E-03  5.101003E-03  0.000000E+00  1.944839E-02  1.348999E-02  7.701329E-15  4.875337E-01  0.000000E+00
  3.239710E-03  3.821490E-03  5.000000E-01  3.272429E-03  3.799433E-03  0.000000E+00  2.197441E-02  1.678723E-02 -3.870349E-15  5.449083E-01  0.000000E+00
  1.861880E-03  2.712232E-03  5.000000E-01  1.880684E-03  2.678972E-03  0.000000E+00  2.372865E-02  2.113099E-02 -5.138275E-14  6.310567E-01  0.000000E+00
  9.013910E-04  1.781321E-03  5.000000E-01  9.104951E-04  1.738660E-03  0.000000E+00  2.171221E-02  2.431420E-02 -1.573003E-13  7.675833E-01  0.000000E+00
  3.295630E-04  1.037077E-03  5.000000E-01  3.328923E-04  9.868999E-04  0.000000E+00  1.312452E-02  1.966984E-02 -3.157284E-13  9.384065E-01  0.000000E+00
  7.194000E-05  4.946735E-04  5.000000E-01  7.266764E-05  4.390191E-04  0.000000E+00  2.332413E-03  4.320374E-04 -4.655708E-13  1.022994E+00  0.000000E+00
  4.516100E-06  1.683590E-04  5.000000E-01  4.562832E-06  1.094091E-04  0.000000E+00 -2.265527E-03 -2.161778E-02 -5.214665E-13  9.270031E-01  0.000000E+00
 -1.112850E-09  6.004377E-05  5.000000E-01  0.000000E+00  0.000000E+00  0.000000E+00 -1.308435E-03 -2.258498E-02 -5.059268E-13  8.271636E-01  0.000000E+00