 Title = "ADflow Slice Data"
Variables =  "CoordinateX"  "CoordinateY"  "CoordinateZ"  "XoC"  "YoC"  "ZoC" "VelocityX" "VelocityY" "VelocityZ" "CoefPressure" "Mach" 
Zone T= "Slice_0001 None Absolute Regular z = 0.50000000"
 Nodes =          192  Elements=          184  ZONETYPE=FELINESEG
 DATAPACKING=POINT
  5.566560E-01  3.259748E-02  5.000000E-01  5.622776E-01  3.288684E-02  0.000000E+00  7.154475E-03 -8.138177E-06 -1.658980E-19  3.220367E-01  0.000000E+00
  5.776220E-01  3.247555E-02  5.000000E-01  5.834553E-01  3.276367E-02  0.000000E+00  7.244947E-03 -7.328179E-05 -1.801657E-18  3.192787E-01  0.000000E+00
  5.983370E-01  3.217773E-02  5.000000E-01  6.043795E-01  3.246284E-02  0.000000E+00  7.337124E-03 -1.336790E-04 -1.174986E-18  3.151498E-01  0.000000E+00
  6.187480E-01  3.172853E-02  5.000000E-01  6.249966E-01  3.200911E-02  0.000000E+00  7.421627E-03 -1.883302E-04 -2.477742E-19  3.104005E-01  0.000000E+00
  6.388030E-01  3.115294E-02  5.000000E-01  6.452542E-01  3.142770E-02  0.000000E+00  7.493210E-03 -2.368259E-04  2.735687E-19  3.055022E-01  0.000000E+00
  6.584530E-01  3.047509E-02  5.000000E-01  6.651026E-01  3.074301E-02  0.000000E+00  7.550009E-03 -2.797377E-04 -4.819282E-20  3.006372E-01  0.000000E+00
  6.776550E-01  2.971500E-02  5.000000E-01  6.844985E-01  2.997525E-02  0.000000E+00  7.595372E-03 -3.205488E-04 -4.120527E-19  2.962914E-01  0.000000E+00
  6.963720E-01  2.887687E-02  5.000000E-01  7.034045E-01  2.912865E-02  0.000000E+00  7.638086E-03 -3.635119E-04 -6.604124E-19  2.927358E-01  0.000000E+00
  7.145680E-01  2.795995E-02  5.000000E-01  7.217843E-01  2.820247E-02  0.000000E+00  7.685733E-03 -4.097157E-04 -1.086388E-18  2.893073E-01  0.000000E+00
  7.322140E-01  2.696777E-02  5.000000E-01  7.396085E-01  2.720026E-02  0.000000E+00  7.740355E-03 -4.578701E-04 -8.050657E-19  2.853794E-01  0.000000E+00
  7.492860E-01  2.590825E-02  5.000000E-01  7.568529E-01  2.613005E-02  0.000000E+00  7.801751E-03 -5.063592E-04  1.363070E-19  2.809175E-01  0.000000E+00
  7.657630E-01  2.479234E-02  5.000000E-01  7.734963E-01  2.500287E-02  0.000000E+00  7.871102E-03 -5.543563E-04  1.201871E-18  2.759504E-01  0.000000E+00
  7.816300E-01  2.363206E-02  5.000000E-01  7.895235E-01  2.383087E-02  0.000000E+00  7.952894E-03 -6.040731E-04  1.615257E-18  2.705962E-01  0.000000E+00
  7.968740E-01  2.243215E-02  5.000000E-01  8.049215E-01  2.261884E-02  0.000000E+00  8.058482E-03 -6.614626E-04  7.215165E-19  2.654748E-01  0.000000E+00
  8.114890E-01  2.118431E-02  5.000000E-01  8.196841E-01  2.135840E-02  0.000000E+00  8.198456E-03 -7.278091E-04 -1.190477E-18  2.599093E-01  0.000000E+00
  8.254710E-01  1.989578E-02  5.000000E-01  8.338073E-01  2.005686E-02  0.000000E+00  8.368879E-03 -7.970670E-04 -1.766898E-18  2.524927E-01  0.000000E+00
  8.388180E-01  1.858396E-02  5.000000E-01  8.472891E-01  1.873180E-02  0.000000E+00  8.555201E-03 -8.632184E-04 -1.083893E-18  2.433554E-01  0.000000E+00
  8.515320E-01  1.726871E-02  5.000000E-01  8.601315E-01  1.740326E-02  0.000000E+00  8.744547E-03 -9.230412E-04 -1.772556E-19  2.333340E-01  0.000000E+00
  8.636180E-01  1.596815E-02  5.000000E-01  8.723395E-01  1.608956E-02  0.000000E+00  8.929534E-03 -9.755052E-04  1.798286E-18  2.230199E-01  0.000000E+00
  8.750810E-01  1.469751E-02  5.000000E-01  8.839183E-01  1.480610E-02  0.000000E+00  9.106190E-03 -1.020724E-03  1.962973E-18  2.126815E-01  0.000000E+00
  8.859290E-01  1.346832E-02  5.000000E-01  8.948758E-01  1.356449E-02  0.000000E+00  9.272567E-03 -1.059416E-03  3.363213E-19  2.025190E-01  0.000000E+00
  8.961710E-01  1.228868E-02  5.000000E-01  9.052213E-01  1.237294E-02  0.000000E+00  9.428417E-03 -1.092506E-03 -1.279483E-19  1.926671E-01  0.000000E+00
  9.058170E-01  1.116436E-02  5.000000E-01  9.149647E-01  1.123726E-02  0.000000E+00  9.574504E-03 -1.120879E-03  3.304533E-19  1.831830E-01  0.000000E+00
  9.148770E-01  1.009915E-02  5.000000E-01  9.241162E-01  1.016129E-02  0.000000E+00  9.711782E-03 -1.145219E-03  9.934044E-19  1.740704E-01  0.000000E+00
  9.148770E-01  1.009915E-02  5.000000E-01  9.241162E-01  1.016129E-02  0.000000E+00  9.711782E-03 -1.145219E-03  9.934044E-19  1.740704E-01  0.000000E+00
  9.233640E-01  9.095447E-03  5.000000E-01  9.326889E-01  9.147456E-03  0.000000E+00  9.841316E-03 -1.166236E-03  1.050470E-18  1.653534E-01  0.000000E+00
  9.312880E-01  8.154552E-03  5.000000E-01  9.406929E-01  8.197059E-03  0.000000E+00  9.964520E-03 -1.184636E-03  4.940906E-19  1.570541E-01  0.000000E+00
  9.386620E-01  7.276839E-03  5.000000E-01  9.481414E-01  7.310482E-03  0.000000E+00  1.008281E-02 -1.201011E-03  1.929828E-19  1.491502E-01  0.000000E+00
  9.454960E-01  6.462216E-03  5.000000E-01  9.550444E-01  6.487633E-03  0.000000E+00  1.019713E-02 -1.215743E-03  4.888571E-19  1.415998E-01  0.000000E+00
  9.518040E-01  5.710016E-03  5.000000E-01  9.614161E-01  5.727836E-03  0.000000E+00  1.030849E-02 -1.229256E-03 -5.408364E-19  1.344046E-01  0.000000E+00
  9.575950E-01  5.019453E-03  5.000000E-01  9.672656E-01  5.030299E-03  0.000000E+00  1.041885E-02 -1.242063E-03 -2.095660E-18  1.275509E-01  0.000000E+00
  9.628810E-01  4.389467E-03  5.000000E-01  9.726050E-01  4.393951E-03  0.000000E+00  1.053183E-02 -1.254760E-03 -2.194486E-18  1.210067E-01  0.000000E+00
  9.676710E-01  3.818973E-03  5.000000E-01  9.774433E-01  3.817696E-03  0.000000E+00  1.065388E-02 -1.268280E-03 -2.666405E-18  1.147648E-01  0.000000E+00
  9.719750E-01  3.306839E-03  5.000000E-01  9.817908E-01  3.300390E-03  0.000000E+00  1.079340E-02 -1.283657E-03 -3.430474E-18  1.088186E-01  0.000000E+00
  9.758020E-01  2.851929E-03  5.000000E-01  9.856565E-01  2.840886E-03  0.000000E+00  1.095348E-02 -1.301334E-03 -2.826775E-18  1.031788E-01  0.000000E+00
  9.791590E-01  2.453226E-03  5.000000E-01  9.890474E-01  2.438157E-03  0.000000E+00  1.111197E-02 -1.318948E-03 -3.247567E-20  9.771367E-02  0.000000E+00
  9.820540E-01  2.109740E-03  5.000000E-01  9.919716E-01  2.091202E-03  0.000000E+00  1.120259E-02 -1.329643E-03  7.964234E-18  9.276268E-02  0.000000E+00
  9.844930E-01  1.820623E-03  5.000000E-01  9.944352E-01  1.799165E-03  0.000000E+00  1.110337E-02 -1.315922E-03  2.647828E-17  8.919645E-02  0.000000E+00
  9.864820E-01  1.585101E-03  5.000000E-01  9.964443E-01  1.561265E-03  0.000000E+00  1.051109E-02 -1.233341E-03  4.103495E-17  8.342514E-02  0.000000E+00
  9.880240E-01  1.402591E-03  5.000000E-01  9.980019E-01  1.376911E-03  0.000000E+00  8.954113E-03 -1.067954E-03 -5.029367E-17  6.960374E-02  0.000000E+00
  9.891220E-01  1.272573E-03  5.000000E-01  9.991110E-01  1.245581E-03  0.000000E+00  8.217175E-03 -1.085048E-03 -5.175026E-16  8.651436E-02  0.000000E+00
  9.897810E-01  1.194696E-03  5.000000E-01  9.997766E-01  1.166917E-03  0.000000E+00  1.544447E-02 -6.431050E-04 -1.555568E-15  1.793632E-01  0.000000E+00
  9.900000E-01  1.168772E-03  5.000000E-01  9.999978E-01  1.140731E-03  0.000000E+00  1.294405E-02 -1.660077E-03 -2.029019E-15 -5.819071E-02  0.000000E+00
  9.900000E-01  1.354992E-03  5.000000E-01  9.999978E-01  1.328832E-03  0.000000E+00  1.199013E-03 -1.351719E-02 -1.282409E-15 -1.991614E-01  0.000000E+00
  9.900000E-01  1.541203E-03  5.000000E-01  9.999978E-01  1.516923E-03  0.000000E+00 -7.319714E-04 -1.420248E-02 -3.333621E-16 -2.088967E-02  0.000000E+00
  9.900000E-01  1.727424E-03  5.000000E-01  9.999978E-01  1.705025E-03  0.000000E+00 -4.619906E-04  3.359797E-03  4.470856E-16 -3.015977E-02  0.000000E+00
  9.900000E-01  1.913645E-03  5.000000E-01  9.999978E-01  1.893126E-03  0.000000E+00  8.038159E-04  3.454404E-03  1.603286E-15 -1.526283E-01  0.000000E+00
  9.900000E-01  2.099865E-03  5.000000E-01  9.999978E-01  2.081227E-03  0.000000E+00  8.133908E-03 -4.577381E-03  2.446137E-15 -5.545612E-02  0.000000E+00
  9.900000E-01  2.099865E-03  5.000000E-01  9.999978E-01  2.081227E-03  0.000000E+00  8.133908E-03 -4.577381E-03  2.446137E-15 -5.545612E-02  0.000000E+00
  9.897920E-01  2.143286E-03  5.000000E-01  9.997877E-01  2.125086E-03  0.000000E+00  8.982553E-03 -2.700473E-03  1.753017E-15  8.690995E-02  0.000000E+00
  9.891660E-01  2.273497E-03  5.000000E-01  9.991554E-01  2.256612E-03  0.000000E+00  3.340113E-03 -6.064951E-04  5.749409E-16  1.601726E-02  0.000000E+00
  9.881230E-01  2.490354E-03  5.000000E-01  9.981019E-01  2.475660E-03  0.000000E+00  3.202704E-03 -6.610701E-04  5.403466E-17  3.714627E-03  0.000000E+00
  9.866580E-01  2.793644E-03  5.000000E-01  9.966221E-01  2.782012E-03  0.000000E+00  3.791946E-03 -7.918510E-04 -5.618170E-17  1.026837E-02  0.000000E+00
  9.847700E-01  3.183023E-03  5.000000E-01  9.947150E-01  3.175323E-03  0.000000E+00  3.950300E-03 -8.123936E-04 -3.974486E-17  8.653213E-03  0.000000E+00
  9.824550E-01  3.658076E-03  5.000000E-01  9.923766E-01  3.655174E-03  0.000000E+00  3.996310E-03 -8.165262E-04 -1.332849E-17  3.557918E-03  0.000000E+00
  9.797070E-01  4.218268E-03  5.000000E-01  9.896009E-01  4.221024E-03  0.000000E+00  4.070584E-03 -8.268724E-04 -1.394564E-18 -2.112312E-03  0.000000E+00
  9.765220E-01  4.862968E-03  5.000000E-01  9.863837E-01  4.872234E-03  0.000000E+00  4.185089E-03 -8.435914E-04  6.453889E-19 -8.706832E-03  0.000000E+00
  9.728930E-01  5.591445E-03  5.000000E-01  9.827181E-01  5.608068E-03  0.000000E+00  4.338723E-03 -8.667769E-04  1.257319E-19 -1.632245E-02  0.000000E+00
  9.688130E-01  6.402836E-03  5.000000E-01  9.785969E-01  6.427653E-03  0.000000E+00  4.525674E-03 -8.952168E-04 -1.264252E-19 -2.479007E-02  0.000000E+00
  9.642740E-01  7.296198E-03  5.000000E-01  9.740120E-01  7.330037E-03  0.000000E+00  4.736517E-03 -9.268020E-04 -5.088964E-19 -3.394713E-02  0.000000E+00
  9.592670E-01  8.270483E-03  5.000000E-01  9.689545E-01  8.314161E-03  0.000000E+00  4.962911E-03 -9.597979E-04 -1.463586E-18 -4.373909E-02  0.000000E+00
  9.537850E-01  9.324532E-03  5.000000E-01  9.634171E-01  9.378855E-03  0.000000E+00  5.199094E-03 -9.928821E-04 -1.570515E-18 -5.403167E-02  0.000000E+00
  9.478160E-01  1.045709E-02  5.000000E-01  9.573878E-01  1.052285E-02  0.000000E+00  5.440722E-03 -1.025139E-03 -3.209195E-19 -6.474252E-02  0.000000E+00
  9.413520E-01  1.166692E-02  5.000000E-01  9.508585E-01  1.174489E-02  0.000000E+00  5.684730E-03 -1.055999E-03  8.781988E-19 -7.579477E-02  0.000000E+00
  9.343800E-01  1.295274E-02  5.000000E-01  9.438161E-01  1.304371E-02  0.000000E+00  5.928499E-03 -1.085024E-03  1.569121E-18 -8.708701E-02  0.000000E+00
  9.268920E-01  1.431308E-02  5.000000E-01  9.362525E-01  1.441778E-02  0.000000E+00  6.169713E-03 -1.111917E-03  1.285710E-18 -9.857598E-02  0.000000E+00
  9.188750E-01  1.574681E-02  5.000000E-01  9.281546E-01  1.586599E-02  0.000000E+00  6.406394E-03 -1.136463E-03  6.379411E-19 -1.101766E-01  0.000000E+00
  9.103190E-01  1.725273E-02  5.000000E-01  9.195122E-01  1.738712E-02  0.000000E+00  6.636631E-03 -1.158598E-03  4.006705E-19 -1.218516E-01  0.000000E+00
  9.012130E-01  1.882986E-02  5.000000E-01  9.103142E-01  1.898018E-02  0.000000E+00  6.858859E-03 -1.178273E-03  4.753331E-19 -1.335520E-01  0.000000E+00
  8.915460E-01  2.047736E-02  5.000000E-01  9.005496E-01  2.064432E-02  0.000000E+00  7.071870E-03 -1.195649E-03 -1.977414E-19 -1.452761E-01  0.000000E+00
  8.813080E-01  2.219485E-02  5.000000E-01  8.902082E-01  2.237915E-02  0.000000E+00  7.275143E-03 -1.211042E-03 -6.764576E-19 -1.570367E-01  0.000000E+00
  8.704900E-01  2.398206E-02  5.000000E-01  8.792809E-01  2.418441E-02  0.000000E+00  7.468795E-03 -1.224844E-03  4.172330E-19 -1.688540E-01  0.000000E+00
  8.704900E-01  2.398206E-02  5.000000E-01  8.792809E-01  2.418441E-02  0.000000E+00  7.468795E-03 -1.224844E-03  4.172330E-19 -1.688540E-01  0.000000E+00
  8.590830E-01  2.583928E-02  5.000000E-01  8.677587E-01  2.606038E-02  0.000000E+00  7.653851E-03 -1.237778E-03 -2.992906E-19 -1.808301E-01  0.000000E+00
  8.470810E-01  2.776741E-02  5.000000E-01  8.556355E-01  2.800798E-02  0.000000E+00  7.832963E-03 -1.250645E-03 -1.359583E-18 -1.931310E-01  0.000000E+00
  8.344780E-01  2.976755E-02  5.000000E-01  8.429052E-01  3.002832E-02  0.000000E+00  8.010558E-03 -1.264111E-03 -1.726167E-18 -2.059587E-01  0.000000E+00
  8.212700E-01  3.184022E-02  5.000000E-01  8.295639E-01  3.212193E-02  0.000000E+00  8.193152E-03 -1.278656E-03 -9.926113E-19 -2.196643E-01  0.000000E+00
  8.074550E-01  3.398429E-02  5.000000E-01  8.156093E-01  3.428765E-02  0.000000E+00  8.389552E-03 -1.294153E-03 -5.137749E-19 -2.346190E-01  0.000000E+00
  7.930350E-01  3.619508E-02  5.000000E-01  8.010437E-01  3.652077E-02  0.000000E+00  8.607208E-03 -1.308954E-03 -4.722927E-19 -2.506342E-01  0.000000E+00
  7.780130E-01  3.846168E-02  5.000000E-01  7.858700E-01  3.881025E-02  0.000000E+00  8.845251E-03 -1.320208E-03  1.577885E-19 -2.669015E-01  0.000000E+00
  7.623950E-01  4.076816E-02  5.000000E-01  7.700943E-01  4.114002E-02  0.000000E+00  9.094142E-03 -1.326857E-03  6.919250E-19 -2.831471E-01  0.000000E+00
  7.461930E-01  4.310383E-02  5.000000E-01  7.537287E-01  4.349928E-02  0.000000E+00  9.343907E-03 -1.329421E-03  2.271720E-18 -2.994664E-01  0.000000E+00
  7.294180E-01  4.545973E-02  5.000000E-01  7.367843E-01  4.587898E-02  0.000000E+00  9.587466E-03 -1.328149E-03  2.378032E-18 -3.156344E-01  0.000000E+00
  7.120900E-01  4.782800E-02  5.000000E-01  7.192813E-01  4.827116E-02  0.000000E+00  9.819261E-03 -1.323488E-03  6.684249E-19 -3.314758E-01  0.000000E+00
  6.942280E-01  5.020286E-02  5.000000E-01  7.012389E-01  5.067000E-02  0.000000E+00  1.003693E-02 -1.316974E-03 -7.563093E-19 -3.472198E-01  0.000000E+00
  6.758590E-01  5.258174E-02  5.000000E-01  6.826844E-01  5.307291E-02  0.000000E+00  1.024549E-02 -1.311325E-03 -5.334439E-19 -3.638204E-01  0.000000E+00
  6.570120E-01  5.496538E-02  5.000000E-01  6.636470E-01  5.548062E-02  0.000000E+00  1.046003E-02 -1.308085E-03  2.888984E-19 -3.823378E-01  0.000000E+00
  6.377220E-01  5.735066E-02  5.000000E-01  6.441622E-01  5.788999E-02  0.000000E+00  1.069926E-02 -1.304903E-03 -2.738746E-19 -4.027418E-01  0.000000E+00
  6.180260E-01  5.972039E-02  5.000000E-01  6.242673E-01  6.028365E-02  0.000000E+00  1.097463E-02 -1.298278E-03 -7.708291E-19 -4.246467E-01  0.000000E+00
  5.979670E-01  6.205363E-02  5.000000E-01  6.040058E-01  6.264046E-02  0.000000E+00  1.128906E-02 -1.286316E-03  6.439653E-19 -4.480845E-01  0.000000E+00
  5.775910E-01  6.432793E-02  5.000000E-01  5.834240E-01  6.493772E-02  0.000000E+00  1.164041E-02 -1.266800E-03  1.831810E-18 -4.726504E-01  0.000000E+00
  5.569470E-01  6.651892E-02  5.000000E-01  5.625715E-01  6.715084E-02  0.000000E+00  1.201959E-02 -1.236456E-03  1.911158E-18 -4.972588E-01  0.000000E+00
  5.360860E-01  6.859931E-02  5.000000E-01  5.414998E-01  6.925223E-02  0.000000E+00  1.241073E-02 -1.194218E-03  1.107703E-18 -5.213317E-01  0.000000E+00
  5.150640E-01  7.055067E-02  5.000000E-01  5.202655E-01  7.122330E-02  0.000000E+00  1.279971E-02 -1.141972E-03 -5.197300E-19 -5.451733E-01  0.000000E+00
  4.939370E-01  7.236151E-02  5.000000E-01  4.989252E-01  7.305244E-02  0.000000E+00  1.318088E-02 -1.080856E-03 -1.877335E-18 -5.689721E-01  0.000000E+00
  4.727610E-01  7.402155E-02  5.000000E-01  4.775353E-01  7.472923E-02  0.000000E+00  1.355481E-02 -1.010947E-03 -1.609235E-18 -5.928323E-01  0.000000E+00
  5.770140E-06 -7.268470E-05  5.000000E-01  5.829536E-06 -1.132629E-04  0.000000E+00  3.553131E-03 -2.071219E-02 -5.103313E-13  9.145432E-01  0.000000E+00
  9.104010E-05 -4.045258E-04  5.000000E-01  9.196062E-05 -4.484552E-04  0.000000E+00  1.905565E-02 -3.356063E-02 -4.393690E-13  9.223073E-01  0.000000E+00
  4.796980E-04 -9.199034E-04  5.000000E-01  4.845435E-04 -9.690375E-04  0.000000E+00  3.700453E-02 -3.351532E-02 -2.922783E-13  6.235284E-01  0.000000E+00
  1.456590E-03 -1.520582E-03  5.000000E-01  1.471301E-03 -1.575782E-03  0.000000E+00  4.059959E-02 -2.030669E-02 -1.411235E-13  3.014363E-01  0.000000E+00
  3.096410E-03 -2.108468E-03  5.000000E-01  3.127681E-03 -2.169605E-03  0.000000E+00  3.382786E-02 -1.049235E-02 -4.334171E-14  1.844743E-01  0.000000E+00
  5.335170E-03 -2.661758E-03  5.000000E-01  5.389050E-03 -2.728482E-03  0.000000E+00  2.747838E-02 -5.978506E-03 -1.869709E-15  1.602989E-01  0.000000E+00
  8.129670E-03 -3.174302E-03  5.000000E-01  8.211771E-03 -3.246203E-03  0.000000E+00  2.354456E-02 -3.797859E-03  7.184599E-15  1.323300E-01  0.000000E+00
  1.145600E-02 -3.627751E-03  5.000000E-01  1.157169E-02 -3.704232E-03  0.000000E+00  2.051811E-02 -2.305300E-03  5.014871E-15  9.089145E-02  0.000000E+00
  1.529970E-02 -3.954227E-03  5.000000E-01  1.545421E-02 -4.034004E-03  0.000000E+00  1.720930E-02 -9.957412E-04  1.865120E-15  4.684197E-02  0.000000E+00
  1.962420E-02 -4.058867E-03  5.000000E-01  1.982238E-02 -4.139701E-03  0.000000E+00  1.368875E-02 -8.280862E-05  2.802487E-16  3.302668E-02  0.000000E+00
  2.439810E-02 -3.962247E-03  5.000000E-01  2.464449E-02 -4.042106E-03  0.000000E+00  1.127907E-02  2.231253E-04 -1.342472E-16  8.196153E-02  0.000000E+00
  2.966100E-02 -3.857557E-03  5.000000E-01  2.996054E-02 -3.936358E-03  0.000000E+00  1.083899E-02  1.670873E-04 -1.175426E-16  1.446423E-01  0.000000E+00
  3.543640E-02 -3.808811E-03  5.000000E-01  3.579427E-02 -3.887120E-03  0.000000E+00  1.159419E-02  6.264890E-05 -4.304027E-17  1.595406E-01  0.000000E+00
  4.172970E-02 -3.795617E-03  5.000000E-01  4.215112E-02 -3.873792E-03  0.000000E+00  1.238128E-02  2.727660E-05 -4.256624E-18  1.414388E-01  0.000000E+00
  4.854440E-02 -3.777221E-03  5.000000E-01  4.903464E-02 -3.855211E-03  0.000000E+00  1.272653E-02  8.564951E-05  5.494398E-18  1.180239E-01  0.000000E+00
  5.588220E-02 -3.696706E-03  5.000000E-01  5.644655E-02 -3.773882E-03  0.000000E+00  1.269115E-02  1.983583E-04  4.771603E-18  1.015702E-01  0.000000E+00
  6.375220E-02 -3.534648E-03  5.000000E-01  6.439602E-02 -3.610188E-03  0.000000E+00  1.251458E-02  3.018354E-04  2.393405E-18  9.558100E-02  0.000000E+00
  7.217040E-02 -3.300824E-03  5.000000E-01  7.289924E-02 -3.374003E-03  0.000000E+00  1.238970E-02  3.708872E-04  5.858702E-19  9.542459E-02  0.000000E+00
  8.115500E-02 -3.013131E-03  5.000000E-01  8.197457E-02 -3.083404E-03  0.000000E+00  1.236683E-02  4.204401E-04  3.052891E-19  9.425235E-02  0.000000E+00
  9.072040E-02 -2.670413E-03  5.000000E-01  9.163657E-02 -2.737225E-03  0.000000E+00  1.239020E-02  4.747966E-04 -3.406983E-19  8.879740E-02  0.000000E+00
  1.008780E-01 -2.256040E-03  5.000000E-01  1.018968E-01 -2.318668E-03  0.000000E+00  1.239253E-02  5.433805E-04 -1.101520E-18  8.129660E-02  0.000000E+00
  1.116380E-01 -1.750831E-03  5.000000E-01  1.127654E-01 -1.808356E-03  0.000000E+00  1.233644E-02  6.264619E-04 -6.364586E-19  7.446027E-02  0.000000E+00
  1.230100E-01 -1.129403E-03  5.000000E-01  1.242523E-01 -1.180652E-03  0.000000E+00  1.219551E-02  7.229823E-04 -1.294092E-18  6.925242E-02  0.000000E+00
  1.350030E-01 -3.620167E-04  5.000000E-01  1.363664E-01 -4.055168E-04  0.000000E+00  1.194094E-02  8.291025E-04 -1.564690E-18  6.654305E-02  0.000000E+00
  1.350030E-01 -3.620167E-04  5.000000E-01  1.363664E-01 -4.055168E-04  0.000000E+00  1.194094E-02  8.291025E-04 -1.564690E-18  6.654305E-02  0.000000E+00
  1.476220E-01  5.847438E-04  5.000000E-01  1.491128E-01  5.508049E-04  0.000000E+00  1.155042E-02  9.377856E-04 -1.080146E-18  6.763890E-02  0.000000E+00
  1.608730E-01  1.745808E-03  5.000000E-01  1.624976E-01  1.723594E-03  0.000000E+00  1.102320E-02  1.039237E-03 -2.302694E-19  7.406300E-02  0.000000E+00
  1.747560E-01  3.152483E-03  5.000000E-01  1.765208E-01  3.144475E-03  0.000000E+00  1.038954E-02  1.121052E-03 -6.846118E-20  8.690228E-02  0.000000E+00
  1.892730E-01  4.820611E-03  5.000000E-01  1.911844E-01  4.829449E-03  0.000000E+00  9.710742E-03  1.167409E-03 -6.672628E-19  1.065096E-01  0.000000E+00
  2.044180E-01  6.729710E-03  5.000000E-01  2.064824E-01  6.757828E-03  0.000000E+00  9.077668E-03  1.163566E-03  2.354944E-19  1.338170E-01  0.000000E+00
  2.201880E-01  8.788862E-03  5.000000E-01  2.224116E-01  8.837775E-03  0.000000E+00  8.565629E-03  1.117344E-03  3.892217E-19  1.649915E-01  0.000000E+00
  2.365750E-01  1.092088E-02  5.000000E-01  2.389641E-01  1.099132E-02  0.000000E+00  8.176561E-03  1.054684E-03 -6.924887E-19  1.920892E-01  0.000000E+00
  2.535710E-01  1.309075E-02  5.000000E-01  2.561318E-01  1.318311E-02  0.000000E+00  7.868405E-03  9.893068E-04 -7.370754E-19  2.135428E-01  0.000000E+00
  2.711570E-01  1.526731E-02  5.000000E-01  2.738954E-01  1.538165E-02  0.000000E+00  7.615181E-03  9.220735E-04 -1.055116E-19  2.322999E-01  0.000000E+00
  2.893100E-01  1.741629E-02  5.000000E-01  2.922317E-01  1.755233E-02  0.000000E+00  7.415249E-03  8.520765E-04 -5.738433E-19  2.497845E-01  0.000000E+00
  3.080020E-01  1.949771E-02  5.000000E-01  3.111125E-01  1.965477E-02  0.000000E+00  7.269842E-03  7.798791E-04 -9.358925E-19  2.654309E-01  0.000000E+00
  3.271950E-01  2.147669E-02  5.000000E-01  3.304993E-01  2.165374E-02  0.000000E+00  7.172285E-03  7.068172E-04 -4.286601E-19  2.785897E-01  0.000000E+00
  3.468470E-01  2.332252E-02  5.000000E-01  3.503497E-01  2.351820E-02  0.000000E+00  7.109938E-03  6.349340E-04  2.236548E-19  2.891222E-01  0.000000E+00
  3.669110E-01  2.502037E-02  5.000000E-01  3.706164E-01  2.523320E-02  0.000000E+00  7.068060E-03  5.664068E-04  8.500846E-19  2.971462E-01  0.000000E+00
  3.873360E-01  2.656495E-02  5.000000E-01  3.912476E-01  2.679338E-02  0.000000E+00  7.035475E-03  5.013130E-04  6.295862E-19  3.034084E-01  0.000000E+00
  4.080670E-01  2.795156E-02  5.000000E-01  4.121880E-01  2.819399E-02  0.000000E+00  7.008153E-03  4.381885E-04 -4.294184E-19  3.087174E-01  0.000000E+00
  4.290470E-01  2.917174E-02  5.000000E-01  4.333799E-01  2.942650E-02  0.000000E+00  6.986944E-03  3.759129E-04 -1.966975E-19  3.133045E-01  0.000000E+00
  4.502140E-01  3.021797E-02  5.000000E-01  4.547606E-01  3.048329E-02  0.000000E+00  6.974052E-03  3.140490E-04  4.533462E-19  3.170476E-01  0.000000E+00
  4.715070E-01  3.108305E-02  5.000000E-01  4.762687E-01  3.135711E-02  0.000000E+00  6.972599E-03  2.521004E-04  6.236650E-19  3.199453E-01  0.000000E+00
  4.928620E-01  3.175974E-02  5.000000E-01  4.978393E-01  3.204064E-02  0.000000E+00  6.986784E-03  1.894618E-04 -5.207857E-22  3.219875E-01  0.000000E+00
  5.142140E-01  3.224144E-02  5.000000E-01  5.194070E-01  3.252720E-02  0.000000E+00  7.020787E-03  1.253202E-04 -9.353733E-19  3.230970E-01  0.000000E+00
  5.355000E-01  3.252184E-02  5.000000E-01  5.409079E-01  3.281042E-02  0.000000E+00  7.077169E-03  5.909557E-05  1.686073E-19  3.231906E-01  0.000000E+00
  5.566560E-01  3.259748E-02  5.000000E-01  5.622776E-01  3.288684E-02  0.000000E+00  7.154475E-03 -8.138177E-06 -1.658980E-19  3.220367E-01  0.000000E+00
  4.727610E-01  7.402155E-02  5.000000E-01  4.775353E-01  7.472923E-02  0.000000E+00  1.355481E-02 -1.010947E-03 -1.609235E-18 -5.928323E-01  0.000000E+00
  4.515970E-01  7.552144E-02  5.000000E-01  4.561576E-01  7.624428E-02  0.000000E+00  1.392551E-02 -9.322823E-04 -1.122545E-19 -6.169410E-01  0.000000E+00
  4.305020E-01  7.685313E-02  5.000000E-01  4.348496E-01  7.758942E-02  0.000000E+00  1.429866E-02 -8.445947E-04  9.991394E-19 -6.415077E-01  0.000000E+00
  4.095340E-01  7.800865E-02  5.000000E-01  4.136698E-01  7.875660E-02  0.000000E+00  1.468081E-02 -7.474385E-04  8.353582E-19 -6.670300E-01  0.000000E+00
  3.887520E-01  7.898143E-02  5.000000E-01  3.926779E-01  7.973921E-02  0.000000E+00  1.508047E-02 -6.392409E-04 -1.170325E-19 -6.940742E-01  0.000000E+00
  3.682080E-01  7.976349E-02  5.000000E-01  3.719265E-01  8.052916E-02  0.000000E+00  1.550634E-02 -5.161066E-04  3.194755E-19 -7.225929E-01  0.000000E+00
  3.479570E-01  8.034325E-02  5.000000E-01  3.514710E-01  8.111478E-02  0.000000E+00  1.596128E-02 -3.731179E-04  8.511600E-19 -7.517679E-01  0.000000E+00
  3.280470E-01  8.070731E-02  5.000000E-01  3.313599E-01  8.148251E-02  0.000000E+00  1.643864E-02 -2.081149E-04  4.282141E-19 -7.808507E-01  0.000000E+00
  3.085240E-01  8.084790E-02  5.000000E-01  3.116397E-01  8.162452E-02  0.000000E+00  1.692810E-02 -2.321985E-05  1.252948E-19 -8.100268E-01  0.000000E+00
  2.894320E-01  8.076624E-02  5.000000E-01  2.923549E-01  8.154204E-02  0.000000E+00  1.742634E-02  1.807361E-04 -7.776275E-19 -8.400570E-01  0.000000E+00
  2.708110E-01  8.046327E-02  5.000000E-01  2.735459E-01  8.123601E-02  0.000000E+00  1.794469E-02  4.074072E-04 -1.963807E-18 -8.729900E-01  0.000000E+00
  2.526960E-01  7.993760E-02  5.000000E-01  2.552479E-01  8.070503E-02  0.000000E+00  1.852111E-02  6.651403E-04 -2.524361E-18 -9.128077E-01  0.000000E+00
  2.351200E-01  7.918706E-02  5.000000E-01  2.374944E-01  7.994691E-02  0.000000E+00  1.922044E-02  9.818237E-04 -2.511878E-18 -9.597651E-01  0.000000E+00
  2.181120E-01  7.818169E-02  5.000000E-01  2.203147E-01  7.893139E-02  0.000000E+00  2.007966E-02  1.404239E-03 -2.420103E-18 -1.006895E+00  0.000000E+00
  2.017010E-01  7.686542E-02  5.000000E-01  2.037379E-01  7.760183E-02  0.000000E+00  2.105584E-02  1.953765E-03 -2.444216E-18 -1.048938E+00  0.000000E+00
  1.859190E-01  7.521113E-02  5.000000E-01  1.877966E-01  7.593083E-02  0.000000E+00  2.207031E-02  2.622634E-03 -3.402030E-19 -1.084931E+00  0.000000E+00
  1.707920E-01  7.321071E-02  5.000000E-01  1.725168E-01  7.391021E-02  0.000000E+00  2.306124E-02  3.410745E-03  6.274349E-19 -1.111603E+00  0.000000E+00
  1.563470E-01  7.085771E-02  5.000000E-01  1.579259E-01  7.153345E-02  0.000000E+00  2.396836E-02  4.319822E-03 -3.527579E-19 -1.123519E+00  0.000000E+00
  1.426070E-01  6.815213E-02  5.000000E-01  1.440472E-01  6.880054E-02  0.000000E+00  2.471751E-02  5.328833E-03 -2.002733E-18 -1.116325E+00  0.000000E+00
  1.295900E-01  6.510966E-02  5.000000E-01  1.308987E-01  6.572735E-02  0.000000E+00  2.523580E-02  6.389815E-03 -5.122737E-18 -1.088326E+00  0.000000E+00
  1.173060E-01  6.176435E-02  5.000000E-01  1.184907E-01  6.234825E-02  0.000000E+00  2.547550E-02  7.445400E-03 -3.660422E-18 -1.039818E+00  0.000000E+00
  1.057600E-01  5.816149E-02  5.000000E-01  1.068281E-01  5.870901E-02  0.000000E+00  2.542340E-02  8.443799E-03 -6.685189E-19 -9.724060E-01  0.000000E+00
  9.495290E-02  5.435399E-02  5.000000E-01  9.591181E-02  5.486305E-02  0.000000E+00  2.510046E-02  9.341823E-03  1.683558E-18 -8.893480E-01  0.000000E+00
  8.487680E-02  5.040051E-02  5.000000E-01  8.573396E-02  5.086965E-02  0.000000E+00  2.455499E-02  1.011303E-02  7.350800E-18 -7.937056E-01  0.000000E+00
  8.487680E-02  5.040051E-02  5.000000E-01  8.573396E-02  5.086965E-02  0.000000E+00  2.455499E-02  1.011303E-02  7.350800E-18 -7.937056E-01  0.000000E+00
  7.552090E-02  4.636105E-02  5.000000E-01  7.628357E-02  4.678939E-02  0.000000E+00  2.383251E-02  1.074225E-02  1.257174E-17 -6.865604E-01  0.000000E+00
  6.687020E-02  4.229335E-02  5.000000E-01  6.754551E-02  4.268062E-02  0.000000E+00  2.295497E-02  1.119594E-02  1.286421E-17 -5.706236E-01  0.000000E+00
  5.889940E-02  3.826103E-02  5.000000E-01  5.949422E-02  3.860757E-02  0.000000E+00  2.195636E-02  1.143632E-02  9.822741E-18 -4.530911E-01  0.000000E+00
  5.157140E-02  3.432913E-02  5.000000E-01  5.209221E-02  3.463597E-02  0.000000E+00  2.092810E-02  1.148680E-02  7.740384E-18 -3.423019E-01  0.000000E+00
  4.484650E-02  3.055108E-02  5.000000E-01  4.529940E-02  3.081976E-02  0.000000E+00  2.000908E-02  1.146378E-02  9.943514E-18 -2.425750E-01  0.000000E+00
  3.869820E-02  2.695733E-02  5.000000E-01  3.908901E-02  2.718972E-02  0.000000E+00  1.933194E-02  1.152915E-02  3.542448E-18 -1.529726E-01  0.000000E+00
  3.311550E-02  2.355930E-02  5.000000E-01  3.344993E-02  2.375738E-02  0.000000E+00  1.895694E-02  1.179878E-02 -1.896714E-17 -6.831218E-02  0.000000E+00
  2.809130E-02  2.036397E-02  5.000000E-01  2.837499E-02  2.052978E-02  0.000000E+00  1.873857E-02  1.223508E-02 -4.775543E-17  2.675074E-02  0.000000E+00
  2.362330E-02  1.737475E-02  5.000000E-01  2.386187E-02  1.751037E-02  0.000000E+00  1.828322E-02  1.248495E-02 -9.596237E-17  1.423411E-01  0.000000E+00
  1.966610E-02  1.461603E-02  5.000000E-01  1.986471E-02  1.472379E-02  0.000000E+00  1.737491E-02  1.206643E-02 -1.582065E-16  2.525026E-01  0.000000E+00
  1.609460E-02  1.214290E-02  5.000000E-01  1.625714E-02  1.222568E-02  0.000000E+00  1.633449E-02  1.107761E-02 -9.563856E-17  3.299765E-01  0.000000E+00
  1.282740E-02  9.975312E-03  5.000000E-01  1.295694E-02  1.003621E-02  0.000000E+00  1.574274E-02  1.022109E-02  5.089493E-16  3.774345E-01  0.000000E+00
  9.860990E-03  8.092781E-03  5.000000E-01  9.960576E-03  8.134664E-03  0.000000E+00  1.601255E-02  1.013346E-02  2.333619E-15  4.129123E-01  0.000000E+00
  7.251350E-03  6.447301E-03  5.000000E-01  7.324581E-03  6.472567E-03  0.000000E+00  1.723545E-02  1.106761E-02  5.408549E-15  4.509281E-01  0.000000E+00
  5.038810E-03  5.003845E-03  5.000000E-01  5.089697E-03  5.014534E-03  0.000000E+00  1.931729E-02  1.309718E-02  6.455560E-15  4.940498E-01  0.000000E+00
  3.239710E-03  3.744267E-03  5.000000E-01  3.272428E-03  3.742235E-03  0.000000E+00  2.192670E-02  1.638985E-02 -5.238024E-15  5.489626E-01  0.000000E+00
  1.861880E-03  2.658387E-03  5.000000E-01  1.880684E-03  2.645390E-03  0.000000E+00  2.380461E-02  2.079142E-02 -4.950674E-14  6.327313E-01  0.000000E+00
  9.013910E-04  1.744483E-03  5.000000E-01  9.104951E-04  1.722256E-03  0.000000E+00  2.190637E-02  2.415037E-02 -1.463773E-13  7.676826E-01  0.000000E+00
  3.295630E-04  1.010661E-03  5.000000E-01  3.328923E-04  9.810230E-04  0.000000E+00  1.335747E-02  1.982181E-02 -2.923650E-13  9.381130E-01  0.000000E+00
  7.194000E-05  4.729557E-04  5.000000E-01  7.266763E-05  4.378878E-04  0.000000E+00  2.525547E-03  1.037048E-03 -4.378774E-13  1.023299E+00  0.000000E+00
  4.516100E-06  1.477547E-04  5.000000E-01  4.562831E-06  1.094027E-04  0.000000E+00 -2.150161E-03 -2.053929E-02 -5.117796E-13  9.298917E-01  0.000000E+00
 -1.112850E-09  3.944582E-05  5.000000E-01  0.000000E+00  0.000000E+00  0.000000E+00 -1.277703E-03 -2.147510E-02 -5.211762E-13  8.330705E-01  0.000000E+00