 Title = "ADflow Slice Data"
Variables =  "CoordinateX"  "CoordinateY"  "CoordinateZ"  "XoC"  "YoC"  "ZoC" "VelocityX" "VelocityY" "VelocityZ" "CoefPressure" "Mach" 
Zone T= "Slice_0001 None Absolute Regular z = 0.50000000"
 Nodes =          192  Elements=          184  ZONETYPE=FELINESEG
 DATAPACKING=POINT
  5.566560E-01  2.107777E-02  5.000000E-01  5.622780E-01  2.110005E-02  0.000000E+00  5.514910E-03  9.425465E-04  2.768616E-18  4.058584E-02  0.000000E+00
  5.776220E-01  2.541330E-02  5.000000E-01  5.834557E-01  2.547936E-02  0.000000E+00  2.902559E-03  6.221299E-04  7.772302E-18  1.583804E-01  0.000000E+00
  5.983370E-01  3.020874E-02  5.000000E-01  6.043799E-01  3.032324E-02  0.000000E+00  1.112537E-03  2.594640E-04  7.451505E-18  2.730030E-01  0.000000E+00
  6.187480E-01  3.479381E-02  5.000000E-01  6.249971E-01  3.495461E-02  0.000000E+00  1.492673E-04  3.776916E-05  3.760082E-18  3.557473E-01  0.000000E+00
  6.388030E-01  3.855565E-02  5.000000E-01  6.452546E-01  3.875445E-02  0.000000E+00 -1.696191E-04 -2.636844E-05 -8.413996E-19  4.065945E-01  0.000000E+00
  6.584530E-01  4.095103E-02  5.000000E-01  6.651031E-01  4.117402E-02  0.000000E+00 -1.256974E-06 -9.231081E-06 -2.799257E-18  4.383259E-01  0.000000E+00
  6.776550E-01  4.159133E-02  5.000000E-01  6.844990E-01  4.182078E-02  0.000000E+00  5.615969E-04 -2.189280E-05 -1.461981E-18  4.561925E-01  0.000000E+00
  6.963720E-01  4.057700E-02  5.000000E-01  7.034050E-01  4.079621E-02  0.000000E+00  1.446854E-03 -1.528804E-04 -2.644556E-18  4.599360E-01  0.000000E+00
  7.145680E-01  3.821150E-02  5.000000E-01  7.217848E-01  3.840681E-02  0.000000E+00  2.600008E-03 -4.385108E-04 -3.697466E-18  4.504317E-01  0.000000E+00
  7.322140E-01  3.482307E-02  5.000000E-01  7.396090E-01  3.498416E-02  0.000000E+00  3.992160E-03 -8.804173E-04 -2.628169E-18  4.268545E-01  0.000000E+00
  7.492860E-01  3.072275E-02  5.000000E-01  7.568534E-01  3.084244E-02  0.000000E+00  5.601380E-03 -1.459943E-03 -1.424867E-18  3.869775E-01  0.000000E+00
  7.657630E-01  2.617937E-02  5.000000E-01  7.734969E-01  2.625318E-02  0.000000E+00  7.398952E-03 -2.144775E-03 -2.514281E-18  3.310882E-01  0.000000E+00
  7.816300E-01  2.140935E-02  5.000000E-01  7.895241E-01  2.143498E-02  0.000000E+00  9.337741E-03 -2.860515E-03 -2.665443E-18  2.603154E-01  0.000000E+00
  7.968740E-01  1.666464E-02  5.000000E-01  8.049221E-01  1.664235E-02  0.000000E+00  1.129624E-02 -3.433315E-03 -1.350879E-18  1.690028E-01  0.000000E+00
  8.114890E-01  1.230791E-02  5.000000E-01  8.196847E-01  1.224162E-02  0.000000E+00  1.306538E-02 -3.697694E-03 -1.827181E-18  6.219356E-02  0.000000E+00
  8.254710E-01  8.539773E-03  5.000000E-01  8.338079E-01  8.435421E-03  0.000000E+00  1.446343E-02 -3.632997E-03 -6.795608E-19 -3.951507E-02  0.000000E+00
  8.388180E-01  5.415627E-03  5.000000E-01  8.472897E-01  5.279723E-03  0.000000E+00  1.542228E-02 -3.318538E-03  1.994740E-19 -1.230671E-01  0.000000E+00
  8.515320E-01  2.910219E-03  5.000000E-01  8.601321E-01  2.749011E-03  0.000000E+00  1.596064E-02 -2.856922E-03 -1.108967E-19 -1.860937E-01  0.000000E+00
  8.636180E-01  9.609874E-04  5.000000E-01  8.723402E-01  7.800933E-04  0.000000E+00  1.613665E-02 -2.334496E-03 -2.174599E-18 -2.305289E-01  0.000000E+00
  8.750810E-01 -5.068752E-04  5.000000E-01  8.839189E-01 -7.025941E-04  0.000000E+00  1.602416E-02 -1.812176E-03 -4.122679E-18 -2.590470E-01  0.000000E+00
  8.859290E-01 -1.568744E-03  5.000000E-01  8.948765E-01 -1.775188E-03  0.000000E+00  1.570042E-02 -1.327736E-03 -2.836696E-18 -2.743597E-01  0.000000E+00
  8.961710E-01 -2.294762E-03  5.000000E-01  9.052219E-01 -2.508537E-03  0.000000E+00  1.523499E-02 -9.002562E-04  1.828637E-19 -2.792942E-01  0.000000E+00
  9.058170E-01 -2.747031E-03  5.000000E-01  9.149653E-01 -2.965375E-03  0.000000E+00  1.468232E-02 -5.355924E-04  1.756556E-18 -2.764756E-01  0.000000E+00
  9.148770E-01 -2.979451E-03  5.000000E-01  9.241168E-01 -3.200141E-03  0.000000E+00  1.408074E-02 -2.317714E-04 -3.901597E-20 -2.680732E-01  0.000000E+00
  9.148770E-01 -2.979451E-03  5.000000E-01  9.241168E-01 -3.200141E-03  0.000000E+00  1.408074E-02 -2.317714E-04 -3.901597E-20 -2.680732E-01  0.000000E+00
  9.233640E-01 -3.037664E-03  5.000000E-01  9.326896E-01 -3.258942E-03  0.000000E+00  1.345604E-02  1.661721E-05  1.177732E-18 -2.557148E-01  0.000000E+00
  9.312880E-01 -2.960685E-03  5.000000E-01  9.406936E-01 -3.181187E-03  0.000000E+00  1.282571E-02  2.161796E-04  3.750061E-18 -2.406225E-01  0.000000E+00
  9.386620E-01 -2.781111E-03  5.000000E-01  9.481421E-01 -2.999798E-03  0.000000E+00  1.220139E-02  3.737969E-04  2.212463E-18 -2.237640E-01  0.000000E+00
  9.454960E-01 -2.526603E-03  5.000000E-01  9.550451E-01 -2.742720E-03  0.000000E+00  1.158999E-02  4.959445E-04  1.765270E-19 -2.059102E-01  0.000000E+00
  9.518040E-01 -2.219814E-03  5.000000E-01  9.614168E-01 -2.432833E-03  0.000000E+00  1.099558E-02  5.882679E-04  1.358725E-19 -1.876044E-01  0.000000E+00
  9.575950E-01 -1.880267E-03  5.000000E-01  9.672663E-01 -2.089856E-03  0.000000E+00  1.042145E-02  6.556842E-04  1.613345E-18 -1.692387E-01  0.000000E+00
  9.628810E-01 -1.523781E-03  5.000000E-01  9.726057E-01 -1.729770E-03  0.000000E+00  9.870768E-03  7.025895E-04  2.381493E-18 -1.511584E-01  0.000000E+00
  9.676710E-01 -1.163898E-03  5.000000E-01  9.774440E-01 -1.366252E-03  0.000000E+00  9.346196E-03  7.327359E-04  1.998198E-18 -1.336300E-01  0.000000E+00
  9.719750E-01 -8.115966E-04  5.000000E-01  9.817915E-01 -1.010393E-03  0.000000E+00  8.847735E-03  7.492212E-04  1.920558E-18 -1.168698E-01  0.000000E+00
  9.758020E-01 -4.760224E-04  5.000000E-01  9.856572E-01 -6.714297E-04  0.000000E+00  8.368117E-03  7.539965E-04  2.606587E-18 -1.009653E-01  0.000000E+00
  9.791590E-01 -1.649032E-04  5.000000E-01  9.890481E-01 -3.571682E-04  0.000000E+00  7.882538E-03  7.468037E-04  6.090099E-18 -8.612678E-02  0.000000E+00
  9.820540E-01  1.157432E-04  5.000000E-01  9.919723E-01 -7.368744E-05  0.000000E+00  7.343737E-03  7.235754E-04  1.548479E-17 -7.241421E-02  0.000000E+00
  9.844930E-01  3.608766E-04  5.000000E-01  9.944359E-01  1.739217E-04  0.000000E+00  6.702280E-03  6.811780E-04  3.482543E-17 -5.917296E-02  0.000000E+00
  9.864820E-01  5.666313E-04  5.000000E-01  9.964450E-01  3.817544E-04  0.000000E+00  5.860102E-03  6.197261E-04  4.684053E-17 -4.822125E-02  0.000000E+00
  9.880240E-01  7.296303E-04  5.000000E-01  9.980026E-01  5.463996E-04  0.000000E+00  4.562048E-03  4.862888E-04 -4.222006E-17 -4.704759E-02  0.000000E+00
  9.891220E-01  8.474269E-04  5.000000E-01  9.991117E-01  6.653859E-04  0.000000E+00  3.882117E-03  3.231619E-04 -4.467795E-16 -3.310357E-02  0.000000E+00
  9.897810E-01  9.189928E-04  5.000000E-01  9.997773E-01  7.376745E-04  0.000000E+00  9.038672E-03  1.700107E-03 -1.291267E-15  4.556072E-02  0.000000E+00
  9.900000E-01  9.428487E-04  5.000000E-01  9.999986E-01  7.617714E-04  0.000000E+00  8.243141E-03  5.622543E-04 -1.656699E-15 -9.212106E-02  0.000000E+00
  9.900000E-01  1.129069E-03  5.000000E-01  9.999986E-01  9.498722E-04  0.000000E+00  8.002115E-04 -9.817878E-03 -1.038389E-15 -1.791359E-01  0.000000E+00
  9.900000E-01  1.315279E-03  5.000000E-01  9.999986E-01  1.137963E-03  0.000000E+00 -4.921207E-04 -1.254467E-02 -2.454010E-16 -5.943090E-02  0.000000E+00
  9.900000E-01  1.501499E-03  5.000000E-01  9.999986E-01  1.326064E-03  0.000000E+00 -1.760520E-04 -3.683289E-03  3.646675E-16 -6.871989E-02  0.000000E+00
  9.900000E-01  1.687719E-03  5.000000E-01  9.999986E-01  1.514164E-03  0.000000E+00  3.694399E-04 -2.454840E-03  9.759060E-16 -1.156636E-01  0.000000E+00
  9.900000E-01  1.873939E-03  5.000000E-01  9.999986E-01  1.702265E-03  0.000000E+00  2.215725E-03 -2.965416E-03  1.256940E-15 -5.686895E-02  0.000000E+00
  9.900000E-01  1.873939E-03  5.000000E-01  9.999986E-01  1.702265E-03  0.000000E+00  2.215725E-03 -2.965416E-03  1.256940E-15 -5.686895E-02  0.000000E+00
  9.897920E-01  1.870796E-03  5.000000E-01  9.997885E-01  1.699091E-03  0.000000E+00  1.018132E-03 -4.324456E-04  8.331477E-16  8.172944E-03  0.000000E+00
  9.891660E-01  1.861357E-03  5.000000E-01  9.991561E-01  1.689556E-03  0.000000E+00 -1.784730E-03  1.983373E-05  2.747907E-16 -2.933354E-02  0.000000E+00
  9.881230E-01  1.847167E-03  5.000000E-01  9.981026E-01  1.675222E-03  0.000000E+00 -1.807077E-03 -1.728587E-05  3.111190E-17 -4.314167E-02  0.000000E+00
  9.866580E-01  1.829358E-03  5.000000E-01  9.966228E-01  1.657234E-03  0.000000E+00 -1.377729E-03 -1.822721E-05 -2.165567E-17 -4.306938E-02  0.000000E+00
  9.847700E-01  1.810853E-03  5.000000E-01  9.947157E-01  1.638543E-03  0.000000E+00 -1.221208E-03 -1.076999E-05 -1.662968E-17 -4.383292E-02  0.000000E+00
  9.824550E-01  1.794904E-03  5.000000E-01  9.923774E-01  1.622432E-03  0.000000E+00 -1.212890E-03 -5.918914E-06 -6.592352E-18 -4.614356E-02  0.000000E+00
  9.797070E-01  1.785333E-03  5.000000E-01  9.896016E-01  1.612764E-03  0.000000E+00 -1.243617E-03 -1.646406E-06 -1.270805E-18 -4.856335E-02  0.000000E+00
  9.765220E-01  1.787492E-03  5.000000E-01  9.863844E-01  1.614945E-03  0.000000E+00 -1.287096E-03  3.945037E-06  9.741219E-19 -5.110428E-02  0.000000E+00
  9.728930E-01  1.807271E-03  5.000000E-01  9.827188E-01  1.634924E-03  0.000000E+00 -1.334333E-03  1.095371E-05  1.001856E-18 -5.400399E-02  0.000000E+00
  9.688130E-01  1.851811E-03  5.000000E-01  9.785976E-01  1.679914E-03  0.000000E+00 -1.378474E-03  1.938346E-05  3.780612E-19 -5.728168E-02  0.000000E+00
  9.642740E-01  1.929476E-03  5.000000E-01  9.740127E-01  1.758364E-03  0.000000E+00 -1.415943E-03  2.922122E-05  5.751064E-19 -6.085412E-02  0.000000E+00
  9.592670E-01  2.049986E-03  5.000000E-01  9.689552E-01  1.880091E-03  0.000000E+00 -1.445470E-03  4.052667E-05  4.641392E-19 -6.467043E-02  0.000000E+00
  9.537850E-01  2.225140E-03  5.000000E-01  9.634178E-01  2.057013E-03  0.000000E+00 -1.465910E-03  5.324789E-05 -9.947487E-19 -6.872607E-02  0.000000E+00
  9.478160E-01  2.467730E-03  5.000000E-01  9.573885E-01  2.302054E-03  0.000000E+00 -1.476207E-03  6.722594E-05 -9.403374E-19 -7.295583E-02  0.000000E+00
  9.413520E-01  2.793569E-03  5.000000E-01  9.508592E-01  2.631183E-03  0.000000E+00 -1.475983E-03  8.234109E-05  3.324188E-19 -7.731301E-02  0.000000E+00
  9.343800E-01  3.220152E-03  5.000000E-01  9.438168E-01  3.062074E-03  0.000000E+00 -1.465253E-03  9.843287E-05 -7.855229E-20 -8.176653E-02  0.000000E+00
  9.268920E-01  3.768408E-03  5.000000E-01  9.362532E-01  3.615868E-03  0.000000E+00 -1.444729E-03  1.153369E-04 -4.614359E-19 -8.625111E-02  0.000000E+00
  9.188750E-01  4.462241E-03  5.000000E-01  9.281552E-01  4.316708E-03  0.000000E+00 -1.415940E-03  1.329317E-04 -8.394335E-19 -9.072892E-02  0.000000E+00
  9.103190E-01  5.329621E-03  5.000000E-01  9.195128E-01  5.192848E-03  0.000000E+00 -1.380786E-03  1.512153E-04 -1.386036E-18 -9.518545E-02  0.000000E+00
  9.012130E-01  6.402919E-03  5.000000E-01  9.103148E-01  6.276986E-03  0.000000E+00 -1.341400E-03  1.702238E-04 -6.318800E-19 -9.960399E-02  0.000000E+00
  8.915460E-01  7.719487E-03  5.000000E-01  9.005502E-01  7.606850E-03  0.000000E+00 -1.300285E-03  1.901542E-04  7.582647E-19 -1.039564E-01  0.000000E+00
  8.813080E-01  9.322666E-03  5.000000E-01  8.902088E-01  9.226221E-03  0.000000E+00 -1.260034E-03  2.113495E-04  1.133527E-18 -1.082497E-01  0.000000E+00
  8.704900E-01  1.126161E-02  5.000000E-01  8.792816E-01  1.118475E-02  0.000000E+00 -1.222605E-03  2.342068E-04  2.133943E-18 -1.125321E-01  0.000000E+00
  8.704900E-01  1.126161E-02  5.000000E-01  8.792816E-01  1.118475E-02  0.000000E+00 -1.222605E-03  2.342068E-04  2.133943E-18 -1.125321E-01  0.000000E+00
  8.590830E-01  1.359157E-02  5.000000E-01  8.677593E-01  1.353824E-02  0.000000E+00 -1.189387E-03  2.590653E-04  2.434745E-18 -1.167890E-01  0.000000E+00
  8.470810E-01  1.637246E-02  5.000000E-01  8.556361E-01  1.634722E-02  0.000000E+00 -1.161587E-03  2.861043E-04  2.076998E-18 -1.209835E-01  0.000000E+00
  8.344780E-01  1.966419E-02  5.000000E-01  8.429058E-01  1.967218E-02  0.000000E+00 -1.139614E-03  3.149788E-04  2.853854E-18 -1.251427E-01  0.000000E+00
  8.212700E-01  2.351648E-02  5.000000E-01  8.295645E-01  2.356338E-02  0.000000E+00 -1.121720E-03  3.435423E-04  5.263951E-18 -1.294059E-01  0.000000E+00
  8.074550E-01  2.794980E-02  5.000000E-01  8.156099E-01  2.804148E-02  0.000000E+00 -1.099543E-03  3.658116E-04  6.707317E-18 -1.345886E-01  0.000000E+00
  7.930350E-01  3.292214E-02  5.000000E-01  8.010443E-01  3.306404E-02  0.000000E+00 -1.053300E-03  3.694814E-04  2.004693E-18 -1.421017E-01  0.000000E+00
  7.780130E-01  3.828285E-02  5.000000E-01  7.858706E-01  3.847889E-02  0.000000E+00 -9.538873E-04  3.392188E-04 -1.902802E-18 -1.531436E-01  0.000000E+00
  7.623950E-01  4.380266E-02  5.000000E-01  7.700948E-01  4.405445E-02  0.000000E+00 -7.635000E-04  2.663868E-04 -2.247243E-18 -1.697593E-01  0.000000E+00
  7.461930E-01  4.934375E-02  5.000000E-01  7.537292E-01  4.965150E-02  0.000000E+00 -4.297186E-04  1.442620E-04  1.348447E-18 -1.961644E-01  0.000000E+00
  7.294180E-01  5.474526E-02  5.000000E-01  7.367848E-01  5.510757E-02  0.000000E+00  1.214519E-04 -3.381533E-05  5.829091E-18 -2.377621E-01  0.000000E+00
  7.120900E-01  5.977841E-02  5.000000E-01  7.192818E-01  6.019154E-02  0.000000E+00  9.690341E-04 -2.500397E-04  4.026019E-18 -2.961072E-01  0.000000E+00
  6.942280E-01  6.414177E-02  5.000000E-01  7.012394E-01  6.459898E-02  0.000000E+00  2.105486E-03 -4.266934E-04  1.553493E-19 -3.583072E-01  0.000000E+00
  6.758590E-01  6.746785E-02  5.000000E-01  6.826849E-01  6.795864E-02  0.000000E+00  3.276806E-03 -4.321754E-04 -1.622945E-18 -3.923056E-01  0.000000E+00
  6.570120E-01  6.935311E-02  5.000000E-01  6.636475E-01  6.986294E-02  0.000000E+00  3.956603E-03 -2.149744E-04 -2.050244E-18 -3.743706E-01  0.000000E+00
  6.377220E-01  6.960522E-02  5.000000E-01  6.441627E-01  7.011761E-02  0.000000E+00  3.687065E-03  5.668506E-05 -2.297566E-18 -3.270987E-01  0.000000E+00
  6.180260E-01  6.856968E-02  5.000000E-01  6.242678E-01  6.907160E-02  0.000000E+00  2.465301E-03  1.591604E-04 -1.775089E-18 -2.926007E-01  0.000000E+00
  5.979670E-01  6.673617E-02  5.000000E-01  6.040062E-01  6.721957E-02  0.000000E+00  6.814513E-04  5.852923E-05 -6.980359E-19 -2.921568E-01  0.000000E+00
  5.775910E-01  6.466185E-02  5.000000E-01  5.834244E-01  6.512431E-02  0.000000E+00 -1.175829E-03 -1.008857E-04  1.171645E-18 -3.287726E-01  0.000000E+00
  5.569470E-01  6.296053E-02  5.000000E-01  5.625719E-01  6.340580E-02  0.000000E+00 -2.719241E-03 -1.407751E-04  1.220698E-18 -3.891904E-01  0.000000E+00
  5.360860E-01  6.225738E-02  5.000000E-01  5.415002E-01  6.269555E-02  0.000000E+00 -3.767162E-03  4.369292E-06 -2.089420E-19 -4.517543E-01  0.000000E+00
  5.150640E-01  6.286257E-02  5.000000E-01  5.202659E-01  6.330685E-02  0.000000E+00 -4.334819E-03  2.738555E-04 -2.149259E-19 -5.038751E-01  0.000000E+00
  4.939370E-01  6.486764E-02  5.000000E-01  4.989255E-01  6.533217E-02  0.000000E+00 -4.538422E-03  5.890700E-04 -1.091921E-18 -5.437928E-01  0.000000E+00
  4.727610E-01  6.835059E-02  5.000000E-01  4.775357E-01  6.885030E-02  0.000000E+00 -4.527642E-03  9.100718E-04 -5.287200E-19 -5.695127E-01  0.000000E+00
  5.770140E-06  7.808515E-05  5.000000E-01  5.829540E-06 -1.117259E-04  0.000000E+00  1.489565E-02 -9.348883E-02 -4.659130E-14  4.610209E-01  0.000000E+00
  9.104010E-05 -2.388004E-04  5.000000E-01  9.196069E-05 -4.318118E-04  0.000000E+00  4.837618E-02 -8.847841E-02 -4.231095E-14  2.904060E-01  0.000000E+00
  4.796980E-04 -6.903421E-04  5.000000E-01  4.845439E-04 -8.879138E-04  0.000000E+00  6.819824E-02 -5.575660E-02 -2.922478E-14 -3.047114E-01  0.000000E+00
  1.456590E-03 -1.129680E-03  5.000000E-01  1.471302E-03 -1.331689E-03  0.000000E+00  5.161757E-02 -1.884122E-02 -1.442948E-14 -6.320254E-01  0.000000E+00
  3.096410E-03 -1.440336E-03  5.000000E-01  3.127683E-03 -1.645482E-03  0.000000E+00  2.724455E-02 -4.098302E-03 -4.510412E-15 -5.141976E-01  0.000000E+00
  5.335170E-03 -1.605665E-03  5.000000E-01  5.389054E-03 -1.812481E-03  0.000000E+00  1.488703E-02 -6.554934E-04 -3.085152E-16 -3.186587E-01  0.000000E+00
  8.129670E-03 -1.624915E-03  5.000000E-01  8.211777E-03 -1.831926E-03  0.000000E+00  1.077521E-02  1.748735E-04  6.257307E-16 -2.065393E-01  0.000000E+00
  1.145600E-02 -1.486470E-03  5.000000E-01  1.157170E-02 -1.692082E-03  0.000000E+00  8.973094E-03  5.765716E-04  4.488733E-16 -1.574951E-01  0.000000E+00
  1.529970E-02 -1.135323E-03  5.000000E-01  1.545422E-02 -1.337388E-03  0.000000E+00  7.006147E-03  7.980262E-04  1.766285E-16 -1.249682E-01  0.000000E+00
  1.962420E-02 -5.017029E-04  5.000000E-01  1.982240E-02 -6.973695E-04  0.000000E+00  4.930522E-03  7.829253E-04  4.334666E-17 -6.810357E-02  0.000000E+00
  2.439810E-02  3.742656E-04  5.000000E-01  2.464451E-02  1.874459E-04  0.000000E+00  3.884606E-03  7.023100E-04  1.986178E-18  3.213304E-02  0.000000E+00
  2.966100E-02  1.309427E-03  5.000000E-01  2.996056E-02  1.132052E-03  0.000000E+00  4.393337E-03  7.515857E-04 -4.927688E-18  1.293723E-01  0.000000E+00
  3.543640E-02  2.238139E-03  5.000000E-01  3.579429E-02  2.070144E-03  0.000000E+00  5.685765E-03  8.738540E-04 -4.818739E-18  1.780563E-01  0.000000E+00
  4.172970E-02  3.165435E-03  5.000000E-01  4.215115E-02  3.006805E-03  0.000000E+00  6.792717E-03  9.670887E-04 -3.521965E-18  1.954542E-01  0.000000E+00
  4.854440E-02  4.110091E-03  5.000000E-01  4.903468E-02  3.961001E-03  0.000000E+00  7.390942E-03  1.009681E-03 -2.491689E-18  2.062216E-01  0.000000E+00
  5.588220E-02  5.100646E-03  5.000000E-01  5.644659E-02  4.961560E-03  0.000000E+00  7.602655E-03  1.009612E-03 -2.029536E-18  2.194355E-01  0.000000E+00
  6.375220E-02  6.130302E-03  5.000000E-01  6.439607E-02  6.001616E-03  0.000000E+00  7.660943E-03  9.715858E-04 -1.061151E-18  2.365782E-01  0.000000E+00
  7.217040E-02  7.164626E-03  5.000000E-01  7.289929E-02  7.046386E-03  0.000000E+00  7.743259E-03  9.042364E-04 -1.354155E-19  2.539830E-01  0.000000E+00
  8.115500E-02  8.158966E-03  5.000000E-01  8.197463E-02  8.050769E-03  0.000000E+00  7.922432E-03  8.200065E-04 -3.010816E-19  2.668592E-01  0.000000E+00
  9.072040E-02  9.081016E-03  5.000000E-01  9.163664E-02  8.982130E-03  0.000000E+00  8.204821E-03  7.283881E-04 -1.218429E-18  2.727243E-01  0.000000E+00
  1.008780E-01  9.908295E-03  5.000000E-01  1.018968E-01  9.817764E-03  0.000000E+00  8.599341E-03  6.320848E-04 -2.863752E-19  2.723762E-01  0.000000E+00
  1.116380E-01  1.061859E-02  5.000000E-01  1.127655E-01  1.053524E-02  0.000000E+00  9.144517E-03  5.315940E-04  1.162740E-18  2.664692E-01  0.000000E+00
  1.230100E-01  1.119607E-02  5.000000E-01  1.242523E-01  1.111855E-02  0.000000E+00  9.882054E-03  4.288934E-04  4.245489E-19  2.541443E-01  0.000000E+00
  1.350030E-01  1.163524E-02  5.000000E-01  1.363665E-01  1.156215E-02  0.000000E+00  1.081289E-02  3.304000E-04  8.897192E-19  2.342054E-01  0.000000E+00
  1.350030E-01  1.163524E-02  5.000000E-01  1.363665E-01  1.156215E-02  0.000000E+00  1.081289E-02  3.304000E-04  8.897192E-19  2.342054E-01  0.000000E+00
  1.476220E-01  1.195082E-02  5.000000E-01  1.491129E-01  1.188092E-02  0.000000E+00  1.184450E-02  2.555688E-04  8.980674E-19  2.054780E-01  0.000000E+00
  1.608730E-01  1.219392E-02  5.000000E-01  1.624977E-01  1.212648E-02  0.000000E+00  1.274238E-02  2.481807E-04  1.552188E-18  1.680018E-01  0.000000E+00
  1.747560E-01  1.247840E-02  5.000000E-01  1.765210E-01  1.241383E-02  0.000000E+00  1.313425E-02  3.780629E-04  1.968045E-18  1.258547E-01  0.000000E+00
  1.892730E-01  1.301646E-02  5.000000E-01  1.911846E-01  1.295732E-02  0.000000E+00  1.259110E-02  7.009141E-04 -3.343785E-18  8.577582E-02  0.000000E+00
  2.044180E-01  1.416025E-02  5.000000E-01  2.064825E-01  1.411266E-02  0.000000E+00  1.079479E-02  1.128016E-03 -5.731543E-18  5.459048E-02  0.000000E+00
  2.201880E-01  1.638407E-02  5.000000E-01  2.224118E-01  1.635894E-02  0.000000E+00  7.898303E-03  1.334182E-03 -3.413371E-18  6.033365E-02  0.000000E+00
  2.365750E-01  1.988953E-02  5.000000E-01  2.389643E-01  1.989981E-02  0.000000E+00  4.660305E-03  1.084710E-03 -1.208309E-18  1.301252E-01  0.000000E+00
  2.535710E-01  2.452699E-02  5.000000E-01  2.561320E-01  2.458410E-02  0.000000E+00  1.920742E-03  5.401407E-04  1.046162E-18  2.412325E-01  0.000000E+00
  2.711570E-01  2.995244E-02  5.000000E-01  2.738956E-01  3.006434E-02  0.000000E+00  1.003886E-04  3.315489E-05  2.881738E-18  3.511507E-01  0.000000E+00
  2.893100E-01  3.556523E-02  5.000000E-01  2.922319E-01  3.573383E-02  0.000000E+00 -7.579538E-04 -2.108200E-04  2.217540E-18  4.382133E-01  0.000000E+00
  3.080020E-01  4.046783E-02  5.000000E-01  3.111127E-01  4.068594E-02  0.000000E+00 -7.327183E-04 -1.669104E-04 -4.980321E-20  4.999390E-01  0.000000E+00
  3.271950E-01  4.350217E-02  5.000000E-01  3.304995E-01  4.375092E-02  0.000000E+00  1.389421E-04 -3.991229E-05 -1.951317E-18  5.424001E-01  0.000000E+00
  3.468470E-01  4.358012E-02  5.000000E-01  3.503500E-01  4.382966E-02  0.000000E+00  1.822583E-03 -1.872384E-04 -4.409493E-18  5.606771E-01  0.000000E+00
  3.669110E-01  4.091193E-02  5.000000E-01  3.706166E-01  4.113452E-02  0.000000E+00  4.168981E-03 -8.080633E-04 -6.624064E-18  5.388397E-01  0.000000E+00
  3.873360E-01  3.629631E-02  5.000000E-01  3.912479E-01  3.647228E-02  0.000000E+00  6.934891E-03 -1.761651E-03 -5.324230E-18  4.709050E-01  0.000000E+00
  4.080670E-01  3.065047E-02  5.000000E-01  4.121883E-01  3.076942E-02  0.000000E+00  9.831320E-03 -2.661621E-03 -3.273754E-19  3.594175E-01  0.000000E+00
  4.290470E-01  2.498336E-02  5.000000E-01  4.333802E-01  2.504508E-02  0.000000E+00  1.243220E-02 -3.004380E-03  4.134791E-18  2.056660E-01  0.000000E+00
  4.502140E-01  2.035507E-02  5.000000E-01  4.547610E-01  2.037005E-02  0.000000E+00  1.415935E-02 -2.534526E-03  4.221651E-18  3.782091E-02  0.000000E+00
  4.715070E-01  1.733580E-02  5.000000E-01  4.762690E-01  1.732029E-02  0.000000E+00  1.457910E-02 -1.520520E-03  3.346094E-19 -8.208138E-02  0.000000E+00
  4.928620E-01  1.594260E-02  5.000000E-01  4.978397E-01  1.591302E-02  0.000000E+00  1.361574E-02 -4.110811E-04 -2.666707E-18 -1.261091E-01  0.000000E+00
  5.142140E-01  1.614327E-02  5.000000E-01  5.194073E-01  1.611571E-02  0.000000E+00  1.147631E-02  4.756947E-04 -3.665946E-18 -1.098984E-01  0.000000E+00
  5.355000E-01  1.788142E-02  5.000000E-01  5.409083E-01  1.787142E-02  0.000000E+00  8.578965E-03  9.437067E-04 -2.196709E-18 -5.141917E-02  0.000000E+00
  5.566560E-01  2.107777E-02  5.000000E-01  5.622780E-01  2.110005E-02  0.000000E+00  5.514910E-03  9.425465E-04  2.768616E-18  4.058584E-02  0.000000E+00
  4.727610E-01  6.835059E-02  5.000000E-01  4.775357E-01  6.885030E-02  0.000000E+00 -4.527642E-03  9.100718E-04 -5.287200E-19 -5.695127E-01  0.000000E+00
  4.515970E-01  7.337599E-02  5.000000E-01  4.561579E-01  7.392646E-02  0.000000E+00 -4.482465E-03  1.239091E-03  3.966000E-18 -5.752920E-01  0.000000E+00
  4.305020E-01  7.997676E-02  5.000000E-01  4.348499E-01  8.059389E-02  0.000000E+00 -4.561953E-03  1.559220E-03  3.394985E-18 -5.671710E-01  0.000000E+00
  4.095340E-01  8.766968E-02  5.000000E-01  4.136701E-01  8.836451E-02  0.000000E+00 -4.651902E-03  1.712586E-03 -8.985284E-19 -5.944690E-01  0.000000E+00
  3.887520E-01  9.540984E-02  5.000000E-01  3.926782E-01  9.618284E-02  0.000000E+00 -3.902541E-03  1.357303E-03  2.702519E-18 -7.560005E-01  0.000000E+00
  3.682080E-01  1.021712E-01  5.000000E-01  3.719267E-01  1.030125E-01  0.000000E+00 -5.109636E-04  2.472365E-04  6.842262E-18 -1.105287E+00  0.000000E+00
  3.479570E-01  1.069988E-01  5.000000E-01  3.514712E-01  1.078888E-01  0.000000E+00  7.182065E-03 -8.429039E-04  6.250513E-18 -1.498169E+00  0.000000E+00
  3.280470E-01  1.090346E-01  5.000000E-01  3.313601E-01  1.099452E-01  0.000000E+00  1.797808E-02  8.331355E-05  3.895843E-18 -1.659343E+00  0.000000E+00
  3.085240E-01  1.079270E-01  5.000000E-01  3.116400E-01  1.088264E-01  0.000000E+00  2.713482E-02  3.321145E-03  3.360631E-18 -1.532884E+00  0.000000E+00
  2.894320E-01  1.046106E-01  5.000000E-01  2.923551E-01  1.054765E-01  0.000000E+00  3.093199E-02  6.388914E-03  2.577727E-18 -1.276878E+00  0.000000E+00
  2.708110E-01  1.001586E-01  5.000000E-01  2.735461E-01  1.009796E-01  0.000000E+00  2.971859E-02  7.421699E-03 -2.306966E-18 -1.005318E+00  0.000000E+00
  2.526960E-01  9.541630E-02  5.000000E-01  2.552481E-01  9.618936E-02  0.000000E+00  2.582227E-02  6.658576E-03 -5.440423E-18 -7.772949E-01  0.000000E+00
  2.351200E-01  9.096386E-02  5.000000E-01  2.374946E-01  9.169195E-02  0.000000E+00  2.139230E-02  5.155537E-03 -2.710814E-18 -6.266978E-01  0.000000E+00
  2.181120E-01  8.711409E-02  5.000000E-01  2.203148E-01  8.780330E-02  0.000000E+00  1.778807E-02  3.742780E-03 -1.132681E-18 -5.704719E-01  0.000000E+00
  2.017010E-01  8.396165E-02  5.000000E-01  2.037381E-01  8.461902E-02  0.000000E+00  1.570852E-02  2.842498E-03 -1.182614E-18 -5.972574E-01  0.000000E+00
  1.859190E-01  8.129754E-02  5.000000E-01  1.877967E-01  8.192801E-02  0.000000E+00  1.531863E-02  2.578609E-03 -1.314062E-18 -6.670428E-01  0.000000E+00
  1.707920E-01  7.876200E-02  5.000000E-01  1.725169E-01  7.936686E-02  0.000000E+00  1.629533E-02  2.870275E-03 -1.895938E-18 -7.461135E-01  0.000000E+00
  1.563470E-01  7.610681E-02  5.000000E-01  1.579260E-01  7.668485E-02  0.000000E+00  1.804833E-02  3.587407E-03 -1.614937E-18 -8.147720E-01  0.000000E+00
  1.426070E-01  7.319352E-02  5.000000E-01  1.440473E-01  7.374214E-02  0.000000E+00  1.997091E-02  4.607846E-03 -4.250326E-18 -8.590243E-01  0.000000E+00
  1.295900E-01  6.996973E-02  5.000000E-01  1.308988E-01  7.048579E-02  0.000000E+00  2.159560E-02  5.789632E-03 -5.203894E-18 -8.731977E-01  0.000000E+00
  1.173060E-01  6.644185E-02  5.000000E-01  1.184907E-01  6.692229E-02  0.000000E+00  2.267926E-02  6.991071E-03 -2.550000E-18 -8.575143E-01  0.000000E+00
  1.057600E-01  6.264845E-02  5.000000E-01  1.068281E-01  6.309057E-02  0.000000E+00  2.318288E-02  8.105526E-03 -8.233099E-19 -8.151762E-01  0.000000E+00
  9.495290E-02  5.864467E-02  5.000000E-01  9.591188E-02  5.904636E-02  0.000000E+00  2.319307E-02  9.072071E-03 -4.095269E-19 -7.514328E-01  0.000000E+00
  8.487680E-02  5.449340E-02  5.000000E-01  8.573402E-02  5.485316E-02  0.000000E+00  2.284489E-02  9.872568E-03  3.767094E-18 -6.713341E-01  0.000000E+00
  8.487680E-02  5.449340E-02  5.000000E-01  8.573402E-02  5.485316E-02  0.000000E+00  2.284489E-02  9.872568E-03  3.767094E-18 -6.713341E-01  0.000000E+00
  7.552090E-02  5.025817E-02  5.000000E-01  7.628363E-02  5.057515E-02  0.000000E+00  2.225721E-02  1.051206E-02  9.052525E-18 -5.777766E-01  0.000000E+00
  6.687020E-02  4.599857E-02  5.000000E-01  6.754556E-02  4.627254E-02  0.000000E+00  2.150410E-02  1.098322E-02  1.149514E-17 -4.742531E-01  0.000000E+00
  5.889940E-02  4.177625E-02  5.000000E-01  5.949426E-02  4.200757E-02  0.000000E+00  2.064568E-02  1.127193E-02  1.038941E-17 -3.673081E-01  0.000000E+00
  5.157140E-02  3.765120E-02  5.000000E-01  5.209225E-02  3.784086E-02  0.000000E+00  1.977114E-02  1.140827E-02  6.597450E-18 -2.640774E-01  0.000000E+00
  4.484650E-02  3.367183E-02  5.000000E-01  4.529943E-02  3.382131E-02  0.000000E+00  1.899655E-02  1.149355E-02  4.977400E-18 -1.682610E-01  0.000000E+00
  3.869820E-02  2.986730E-02  5.000000E-01  3.908904E-02  2.997835E-02  0.000000E+00  1.842575E-02  1.166431E-02 -3.381273E-18 -7.921691E-02  0.000000E+00
  3.311550E-02  2.625136E-02  5.000000E-01  3.344995E-02  2.632588E-02  0.000000E+00  1.810192E-02  1.201931E-02 -2.046464E-17  7.074834E-03  0.000000E+00
  2.809130E-02  2.283413E-02  5.000000E-01  2.837501E-02  2.287414E-02  0.000000E+00  1.790747E-02  1.253087E-02 -3.006059E-17  1.029284E-01  0.000000E+00
  2.362330E-02  1.962328E-02  5.000000E-01  2.386189E-02  1.963087E-02  0.000000E+00  1.754305E-02  1.290993E-02 -3.189107E-17  2.164545E-01  0.000000E+00
  1.966610E-02  1.664107E-02  5.000000E-01  1.986472E-02  1.661854E-02  0.000000E+00  1.687662E-02  1.275891E-02 -3.200334E-17  3.261430E-01  0.000000E+00
  1.609460E-02  1.392957E-02  5.000000E-01  1.625715E-02  1.387965E-02  0.000000E+00  1.619602E-02  1.215844E-02 -2.817517E-17  4.103431E-01  0.000000E+00
  1.282740E-02  1.150480E-02  5.000000E-01  1.295695E-02  1.143039E-02  0.000000E+00  1.593089E-02  1.168684E-02  9.700558E-18  4.730519E-01  0.000000E+00
  9.860990E-03  9.355081E-03  5.000000E-01  9.960583E-03  9.258963E-03  0.000000E+00  1.629354E-02  1.185813E-02  1.532913E-16  5.302968E-01  0.000000E+00
  7.251350E-03  7.449858E-03  5.000000E-01  7.324586E-03  7.334499E-03  0.000000E+00  1.718562E-02  1.281680E-02  4.509054E-16  5.938222E-01  0.000000E+00
  5.038810E-03  5.768100E-03  5.000000E-01  5.089701E-03  5.635755E-03  0.000000E+00  1.828008E-02  1.442030E-02  7.254548E-16  6.651495E-01  0.000000E+00
  3.239710E-03  4.301356E-03  5.000000E-01  3.272431E-03  4.154198E-03  0.000000E+00  1.883353E-02  1.626178E-02  1.737949E-16  7.489533E-01  0.000000E+00
  1.861880E-03  3.047556E-03  5.000000E-01  1.880685E-03  2.887736E-03  0.000000E+00  1.702508E-02  1.681234E-02 -3.071562E-15  8.549840E-01  0.000000E+00
  9.013910E-04  2.011078E-03  5.000000E-01  9.104958E-04  1.840790E-03  0.000000E+00  9.728944E-03  1.119854E-02 -1.153417E-14  9.848920E-01  0.000000E+00
  3.295630E-04  1.201980E-03  5.000000E-01  3.328926E-04  1.023520E-03  0.000000E+00 -3.904880E-03 -1.095870E-02 -2.605508E-14  1.080792E+00  0.000000E+00
  7.194000E-05  6.303030E-04  5.000000E-01  7.266769E-05  4.460692E-04  0.000000E+00 -1.449413E-02 -5.717597E-02 -4.177843E-14  9.748592E-01  0.000000E+00
  4.516100E-06  2.970478E-04  5.000000E-01  4.562835E-06  1.094482E-04  0.000000E+00 -1.214303E-02 -1.033934E-01 -4.866814E-14  6.163486E-01  0.000000E+00
 -1.112850E-09  1.886939E-04  5.000000E-01  0.000000E+00  0.000000E+00  0.000000E+00 -2.349526E-03 -1.055434E-01 -4.721339E-14  3.771396E-01  0.000000E+00