 Title = "ADflow Slice Data"
Variables =  "CoordinateX"  "CoordinateY"  "CoordinateZ"  "XoC"  "YoC"  "ZoC" "VelocityX" "VelocityY" "VelocityZ" "CoefPressure" "Mach" 
Zone T= "Slice_0001 None Absolute Regular z = 0.50000000"
 Nodes =          192  Elements=          184  ZONETYPE=FELINESEG
 DATAPACKING=POINT
  5.566560E-01  3.095574E-02  5.000000E-01  5.622776E-01  3.121056E-02  0.000000E+00  7.321105E-03 -8.257663E-06 -2.234797E-18  3.079700E-01  0.000000E+00
  5.776220E-01  3.086592E-02  5.000000E-01  5.834553E-01  3.111983E-02  0.000000E+00  7.331812E-03 -5.760174E-05 -4.674202E-20  3.070212E-01  0.000000E+00
  5.983370E-01  3.062988E-02  5.000000E-01  6.043795E-01  3.088141E-02  0.000000E+00  7.364170E-03 -1.127341E-04  8.382862E-19  3.063299E-01  0.000000E+00
  6.187480E-01  3.023756E-02  5.000000E-01  6.249966E-01  3.048513E-02  0.000000E+00  7.431112E-03 -1.742315E-04  1.852039E-18  3.047190E-01  0.000000E+00
  6.388030E-01  2.968318E-02  5.000000E-01  6.452542E-01  2.992515E-02  0.000000E+00  7.537206E-03 -2.423812E-04  9.190167E-20  3.016734E-01  0.000000E+00
  6.584530E-01  2.896458E-02  5.000000E-01  6.651026E-01  2.919929E-02  0.000000E+00  7.679826E-03 -3.155526E-04 -1.401298E-18  2.972322E-01  0.000000E+00
  6.776550E-01  2.809005E-02  5.000000E-01  6.844985E-01  2.831593E-02  0.000000E+00  7.842884E-03 -3.849643E-04  4.049862E-20  2.904836E-01  0.000000E+00
  6.963720E-01  2.710524E-02  5.000000E-01  7.034046E-01  2.732118E-02  0.000000E+00  7.997108E-03 -4.406930E-04  2.579954E-19  2.813560E-01  0.000000E+00
  7.145680E-01  2.605825E-02  5.000000E-01  7.217843E-01  2.626361E-02  0.000000E+00  8.116579E-03 -4.802943E-04 -1.438728E-18  2.718236E-01  0.000000E+00
  7.322140E-01  2.498610E-02  5.000000E-01  7.396085E-01  2.518064E-02  0.000000E+00  8.189081E-03 -5.057942E-04 -2.192379E-18  2.634201E-01  0.000000E+00
  7.492860E-01  2.391498E-02  5.000000E-01  7.568529E-01  2.409870E-02  0.000000E+00  8.214559E-03 -5.202224E-04 -2.058072E-18  2.566905E-01  0.000000E+00
  7.657630E-01  2.286175E-02  5.000000E-01  7.734963E-01  2.303483E-02  0.000000E+00  8.201375E-03 -5.270841E-04 -1.171948E-18  2.514651E-01  0.000000E+00
  7.816300E-01  2.183596E-02  5.000000E-01  7.895236E-01  2.199868E-02  0.000000E+00  8.167202E-03 -5.346956E-04 -8.239032E-20  2.477107E-01  0.000000E+00
  7.968740E-01  2.082669E-02  5.000000E-01  8.049215E-01  2.097922E-02  0.000000E+00  8.146831E-03 -5.584490E-04 -1.356842E-19  2.464709E-01  0.000000E+00
  8.114890E-01  1.979146E-02  5.000000E-01  8.196841E-01  1.993354E-02  0.000000E+00  8.177043E-03 -6.047018E-04 -1.096359E-18  2.462357E-01  0.000000E+00
  8.254710E-01  1.871286E-02  5.000000E-01  8.338073E-01  1.884404E-02  0.000000E+00  8.266023E-03 -6.649305E-04  3.640423E-19  2.436927E-01  0.000000E+00
  8.388180E-01  1.759504E-02  5.000000E-01  8.472891E-01  1.771494E-02  0.000000E+00  8.396709E-03 -7.292707E-04  9.954999E-19  2.383221E-01  0.000000E+00
  8.515320E-01  1.645213E-02  5.000000E-01  8.601315E-01  1.656048E-02  0.000000E+00  8.549983E-03 -7.918025E-04  2.324403E-19  2.312061E-01  0.000000E+00
  8.636180E-01  1.530084E-02  5.000000E-01  8.723396E-01  1.539757E-02  0.000000E+00  8.713820E-03 -8.498958E-04  1.556541E-20  2.231959E-01  0.000000E+00
  8.750810E-01  1.415723E-02  5.000000E-01  8.839183E-01  1.424241E-02  0.000000E+00  8.880823E-03 -9.026189E-04  5.387446E-19  2.146557E-01  0.000000E+00
  8.859290E-01  1.303475E-02  5.000000E-01  8.948759E-01  1.310859E-02  0.000000E+00  9.045980E-03 -9.498939E-04  4.688262E-19  2.058441E-01  0.000000E+00
  8.961710E-01  1.194386E-02  5.000000E-01  9.052213E-01  1.200668E-02  0.000000E+00  9.206442E-03 -9.920478E-04 -1.149958E-18  1.969727E-01  0.000000E+00
  9.058170E-01  1.089267E-02  5.000000E-01  9.149647E-01  1.094487E-02  0.000000E+00  9.361078E-03 -1.029566E-03 -6.594042E-19  1.881733E-01  0.000000E+00
  9.148770E-01  9.887230E-03  5.000000E-01  9.241162E-01  9.929283E-03  0.000000E+00  9.509578E-03 -1.062888E-03  3.490786E-19  1.795076E-01  0.000000E+00
  9.148770E-01  9.887230E-03  5.000000E-01  9.241162E-01  9.929283E-03  0.000000E+00  9.509578E-03 -1.062888E-03  3.490786E-19  1.795076E-01  0.000000E+00
  9.233640E-01  8.931991E-03  5.000000E-01  9.326889E-01  8.964397E-03  0.000000E+00  9.652156E-03 -1.092570E-03  1.267448E-18  1.710439E-01  0.000000E+00
  9.312880E-01  8.030042E-03  5.000000E-01  9.406929E-01  8.053339E-03  0.000000E+00  9.789659E-03 -1.119229E-03  2.005677E-18  1.628407E-01  0.000000E+00
  9.386620E-01  7.183338E-03  5.000000E-01  9.481414E-01  7.198084E-03  0.000000E+00  9.923116E-03 -1.143411E-03  1.166658E-18  1.549055E-01  0.000000E+00
  9.454960E-01  6.393139E-03  5.000000E-01  9.550444E-01  6.399905E-03  0.000000E+00  1.005320E-02 -1.165487E-03 -1.229351E-19  1.472213E-01  0.000000E+00
  9.518040E-01  5.659948E-03  5.000000E-01  9.614161E-01  5.659310E-03  0.000000E+00  1.018078E-02 -1.185883E-03  1.627749E-20  1.398100E-01  0.000000E+00
  9.575950E-01  4.983965E-03  5.000000E-01  9.672656E-01  4.976500E-03  0.000000E+00  1.030769E-02 -1.205125E-03  1.056861E-18  1.326741E-01  0.000000E+00
  9.628810E-01  4.364976E-03  5.000000E-01  9.726050E-01  4.351260E-03  0.000000E+00  1.043754E-02 -1.223827E-03  3.502542E-19  1.257954E-01  0.000000E+00
  9.676710E-01  3.802606E-03  5.000000E-01  9.774434E-01  3.783211E-03  0.000000E+00  1.057678E-02 -1.242949E-03 -1.060606E-18  1.191783E-01  0.000000E+00
  9.719750E-01  3.296325E-03  5.000000E-01  9.817908E-01  3.271817E-03  0.000000E+00  1.073392E-02 -1.263562E-03 -2.450140E-18  1.128265E-01  0.000000E+00
  9.758020E-01  2.845502E-03  5.000000E-01  9.856565E-01  2.816441E-03  0.000000E+00  1.091232E-02 -1.286170E-03 -5.318843E-18  1.067592E-01  0.000000E+00
  9.791590E-01  2.449539E-03  5.000000E-01  9.890474E-01  2.416480E-03  0.000000E+00  1.109021E-02 -1.308499E-03 -4.497288E-18  1.008523E-01  0.000000E+00
  9.820540E-01  2.107797E-03  5.000000E-01  9.919716E-01  2.071286E-03  0.000000E+00  1.120169E-02 -1.323788E-03  7.148464E-18  9.545387E-02  0.000000E+00
  9.844930E-01  1.819712E-03  5.000000E-01  9.944353E-01  1.780291E-03  0.000000E+00  1.112475E-02 -1.314545E-03  3.693732E-17  9.144884E-02  0.000000E+00
  9.864820E-01  1.584741E-03  5.000000E-01  9.964443E-01  1.542948E-03  0.000000E+00  1.055448E-02 -1.236065E-03  6.272139E-17  8.524626E-02  0.000000E+00
  9.880240E-01  1.402481E-03  5.000000E-01  9.980019E-01  1.358847E-03  0.000000E+00  9.013555E-03 -1.073772E-03 -3.424550E-17  7.096507E-02  0.000000E+00
  9.891220E-01  1.272548E-03  5.000000E-01  9.991110E-01  1.227602E-03  0.000000E+00  8.284785E-03 -1.093084E-03 -5.283846E-16  8.751501E-02  0.000000E+00
  9.897810E-01  1.194684E-03  5.000000E-01  9.997767E-01  1.148952E-03  0.000000E+00  1.553789E-02 -6.496916E-04 -1.592554E-15  1.805103E-01  0.000000E+00
  9.900000E-01  1.168758E-03  5.000000E-01  9.999979E-01  1.122764E-03  0.000000E+00  1.300938E-02 -1.650177E-03 -2.057360E-15 -5.807545E-02  0.000000E+00
  9.900000E-01  1.354979E-03  5.000000E-01  9.999979E-01  1.310865E-03  0.000000E+00  1.204598E-03 -1.353966E-02 -1.295721E-15 -1.998279E-01  0.000000E+00
  9.900000E-01  1.541189E-03  5.000000E-01  9.999979E-01  1.498956E-03  0.000000E+00 -7.340017E-04 -1.424531E-02 -3.486328E-16 -2.094199E-02  0.000000E+00
  9.900000E-01  1.727410E-03  5.000000E-01  9.999979E-01  1.687058E-03  0.000000E+00 -4.636299E-04  3.374948E-03  4.370275E-16 -3.015900E-02  0.000000E+00
  9.900000E-01  1.913631E-03  5.000000E-01  9.999979E-01  1.875159E-03  0.000000E+00  8.055902E-04  3.482187E-03  1.596906E-15 -1.530017E-01  0.000000E+00
  9.900000E-01  2.099851E-03  5.000000E-01  9.999979E-01  2.063260E-03  0.000000E+00  8.150076E-03 -4.577355E-03  2.441226E-15 -5.567009E-02  0.000000E+00
  9.900000E-01  2.099851E-03  5.000000E-01  9.999979E-01  2.063260E-03  0.000000E+00  8.150076E-03 -4.577355E-03  2.441226E-15 -5.567009E-02  0.000000E+00
  9.897920E-01  2.143254E-03  5.000000E-01  9.997878E-01  2.107101E-03  0.000000E+00  8.994093E-03 -2.703915E-03  1.748915E-15  8.702837E-02  0.000000E+00
  9.891660E-01  2.273388E-03  5.000000E-01  9.991554E-01  2.238549E-03  0.000000E+00  3.335907E-03 -6.049241E-04  5.674203E-16  1.587033E-02  0.000000E+00
  9.881230E-01  2.490047E-03  5.000000E-01  9.981019E-01  2.457397E-03  0.000000E+00  3.203048E-03 -6.603171E-04  4.863631E-17  3.375512E-03  0.000000E+00
  9.866580E-01  2.792911E-03  5.000000E-01  9.966221E-01  2.763319E-03  0.000000E+00  3.803892E-03 -7.929471E-04 -5.406630E-17  9.738157E-03  0.000000E+00
  9.847700E-01  3.181487E-03  5.000000E-01  9.947151E-01  3.155819E-03  0.000000E+00  3.975701E-03 -8.155717E-04 -3.497321E-17  7.886251E-03  0.000000E+00
  9.824550E-01  3.655164E-03  5.000000E-01  9.923767E-01  3.634280E-03  0.000000E+00  4.036038E-03 -8.218281E-04 -1.015862E-17  2.526774E-03  0.000000E+00
  9.797070E-01  4.213168E-03  5.000000E-01  9.896009E-01  4.197919E-03  0.000000E+00  4.125078E-03 -8.341519E-04 -8.274541E-19 -3.431579E-03  0.000000E+00
  9.765220E-01  4.854577E-03  5.000000E-01  9.863838E-01  4.845805E-03  0.000000E+00  4.254767E-03 -8.526445E-04 -7.628220E-19 -1.033652E-02  0.000000E+00
  9.728930E-01  5.578322E-03  5.000000E-01  9.827181E-01  5.576860E-03  0.000000E+00  4.424142E-03 -8.773759E-04 -7.085725E-19 -1.827650E-02  0.000000E+00
  9.688130E-01  6.383151E-03  5.000000E-01  9.785969E-01  6.389816E-03  0.000000E+00  4.627426E-03 -9.070896E-04 -6.209183E-19 -2.707130E-02  0.000000E+00
  9.642740E-01  7.267673E-03  5.000000E-01  9.740121E-01  7.283271E-03  0.000000E+00  4.855094E-03 -9.396115E-04 -1.258900E-18 -3.654638E-02  0.000000E+00
  9.592670E-01  8.230336E-03  5.000000E-01  9.689545E-01  8.255656E-03  0.000000E+00  5.098623E-03 -9.731368E-04 -2.632456E-18 -4.663426E-02  0.000000E+00
  9.537850E-01  9.269425E-03  5.000000E-01  9.634171E-01  9.305239E-03  0.000000E+00  5.352007E-03 -1.006260E-03 -2.374649E-18 -5.718385E-02  0.000000E+00
  9.478160E-01  1.038305E-02  5.000000E-01  9.573879E-01  1.043011E-02  0.000000E+00  5.610583E-03 -1.037977E-03 -1.549592E-18 -6.809443E-02  0.000000E+00
  9.413520E-01  1.156930E-02  5.000000E-01  9.508586E-01  1.162834E-02  0.000000E+00  5.870911E-03 -1.067631E-03 -1.202734E-18 -7.926807E-02  0.000000E+00
  9.343800E-01  1.282614E-02  5.000000E-01  9.438162E-01  1.289787E-02  0.000000E+00  6.129935E-03 -1.094694E-03 -1.057240E-18 -9.057940E-02  0.000000E+00
  9.268920E-01  1.415126E-02  5.000000E-01  9.362526E-01  1.423638E-02  0.000000E+00  6.384827E-03 -1.118784E-03 -1.357045E-18 -1.019585E-01  0.000000E+00
  9.188750E-01  1.554268E-02  5.000000E-01  9.281546E-01  1.564184E-02  0.000000E+00  6.633007E-03 -1.139603E-03 -1.349609E-18 -1.132890E-01  0.000000E+00
  9.103190E-01  1.699825E-02  5.000000E-01  9.195122E-01  1.711211E-02  0.000000E+00  6.871824E-03 -1.157007E-03 -1.395621E-18 -1.244989E-01  0.000000E+00
  9.012130E-01  1.851603E-02  5.000000E-01  9.103142E-01  1.864522E-02  0.000000E+00  7.098797E-03 -1.170872E-03 -1.960397E-18 -1.354996E-01  0.000000E+00
  8.915460E-01  2.009420E-02  5.000000E-01  9.005496E-01  2.023933E-02  0.000000E+00  7.311561E-03 -1.181282E-03 -4.337423E-19 -1.462457E-01  0.000000E+00
  8.813080E-01  2.173146E-02  5.000000E-01  8.902082E-01  2.189313E-02  0.000000E+00  7.508039E-03 -1.188478E-03  1.363499E-18 -1.566907E-01  0.000000E+00
  8.704900E-01  2.342677E-02  5.000000E-01  8.792810E-01  2.360556E-02  0.000000E+00  7.686206E-03 -1.192791E-03  8.499455E-19 -1.667843E-01  0.000000E+00
  8.704900E-01  2.342677E-02  5.000000E-01  8.792810E-01  2.360556E-02  0.000000E+00  7.686206E-03 -1.192791E-03  8.499455E-19 -1.667843E-01  0.000000E+00
  8.590830E-01  2.517996E-02  5.000000E-01  8.677588E-01  2.537645E-02  0.000000E+00  7.844479E-03 -1.194944E-03  9.930766E-19 -1.765792E-01  0.000000E+00
  8.470810E-01  2.699211E-02  5.000000E-01  8.556356E-01  2.720690E-02  0.000000E+00  7.982710E-03 -1.195906E-03  1.336665E-18 -1.861901E-01  0.000000E+00
  8.344780E-01  2.886563E-02  5.000000E-01  8.429053E-01  2.909934E-02  0.000000E+00  8.102172E-03 -1.196753E-03 -4.642468E-19 -1.957115E-01  0.000000E+00
  8.212700E-01  3.080428E-02  5.000000E-01  8.295639E-01  3.105757E-02  0.000000E+00  8.205405E-03 -1.198776E-03 -2.858346E-18 -2.053253E-01  0.000000E+00
  8.074550E-01  3.281338E-02  5.000000E-01  8.156094E-01  3.308696E-02  0.000000E+00  8.297673E-03 -1.203612E-03 -4.949811E-18 -2.154649E-01  0.000000E+00
  7.930350E-01  3.489962E-02  5.000000E-01  8.010437E-01  3.519427E-02  0.000000E+00  8.389368E-03 -1.212998E-03 -4.593918E-18 -2.268565E-01  0.000000E+00
  7.780130E-01  3.706994E-02  5.000000E-01  7.858700E-01  3.738650E-02  0.000000E+00  8.496073E-03 -1.227724E-03 -2.618899E-18 -2.401437E-01  0.000000E+00
  7.623950E-01  3.932708E-02  5.000000E-01  7.700943E-01  3.966644E-02  0.000000E+00  8.633614E-03 -1.246603E-03 -9.244169E-19 -2.554189E-01  0.000000E+00
  7.461930E-01  4.166439E-02  5.000000E-01  7.537287E-01  4.202736E-02  0.000000E+00  8.812261E-03 -1.267629E-03  7.269425E-19 -2.725733E-01  0.000000E+00
  7.294180E-01  4.407053E-02  5.000000E-01  7.367843E-01  4.445780E-02  0.000000E+00  9.036447E-03 -1.289306E-03 -4.706203E-19 -2.916745E-01  0.000000E+00
  7.120900E-01  4.652977E-02  5.000000E-01  7.192813E-01  4.694187E-02  0.000000E+00  9.306944E-03 -1.309475E-03 -7.780419E-19 -3.126441E-01  0.000000E+00
  6.942280E-01  4.902129E-02  5.000000E-01  7.012389E-01  4.945855E-02  0.000000E+00  9.619798E-03 -1.324839E-03  2.319856E-18 -3.349435E-01  0.000000E+00
  6.758590E-01  5.151963E-02  5.000000E-01  6.826844E-01  5.198213E-02  0.000000E+00  9.962789E-03 -1.331445E-03  1.189641E-18 -3.573151E-01  0.000000E+00
  6.570120E-01  5.399596E-02  5.000000E-01  6.636471E-01  5.448346E-02  0.000000E+00  1.031417E-02 -1.326991E-03 -4.993804E-19 -3.785363E-01  0.000000E+00
  6.377220E-01  5.642695E-02  5.000000E-01  6.441623E-01  5.693900E-02  0.000000E+00  1.065139E-02 -1.314076E-03  8.048050E-19 -3.988119E-01  0.000000E+00
  6.180260E-01  5.880599E-02  5.000000E-01  6.242674E-01  5.934207E-02  0.000000E+00  1.096426E-02 -1.296584E-03 -8.785831E-19 -4.188429E-01  0.000000E+00
  5.979670E-01  6.112873E-02  5.000000E-01  6.040058E-01  6.168826E-02  0.000000E+00  1.125607E-02 -1.276087E-03 -2.323864E-18 -4.390438E-01  0.000000E+00
  5.775910E-01  6.339041E-02  5.000000E-01  5.834240E-01  6.397278E-02  0.000000E+00  1.153866E-02 -1.253488E-03 -2.090678E-18 -4.601686E-01  0.000000E+00
  5.569470E-01  6.558502E-02  5.000000E-01  5.625715E-01  6.618956E-02  0.000000E+00  1.182952E-02 -1.228807E-03 -1.507928E-18 -4.829425E-01  0.000000E+00
  5.360860E-01  6.770220E-02  5.000000E-01  5.414999E-01  6.832812E-02  0.000000E+00  1.214593E-02 -1.199717E-03 -1.290671E-18 -5.074380E-01  0.000000E+00
  5.150640E-01  6.972304E-02  5.000000E-01  5.202656E-01  7.036936E-02  0.000000E+00  1.249752E-02 -1.162550E-03 -7.176472E-20 -5.332502E-01  0.000000E+00
  4.939370E-01  7.162440E-02  5.000000E-01  4.989252E-01  7.228993E-02  0.000000E+00  1.288423E-02 -1.114578E-03  2.125395E-18 -5.600326E-01  0.000000E+00
  4.727610E-01  7.338435E-02  5.000000E-01  4.775353E-01  7.406765E-02  0.000000E+00  1.329910E-02 -1.053870E-03  1.544291E-18 -5.872804E-01  0.000000E+00
  5.770140E-06 -5.472985E-05  5.000000E-01  5.829536E-06 -1.130797E-04  0.000000E+00  4.146013E-03 -2.438464E-02 -5.225129E-13  9.038588E-01  0.000000E+00
  9.104010E-05 -3.847881E-04  5.000000E-01  9.196063E-05 -4.464712E-04  0.000000E+00  2.080242E-02 -3.671388E-02 -4.531175E-13  9.023328E-01  0.000000E+00
  4.796980E-04 -8.925509E-04  5.000000E-01  4.845435E-04 -9.593618E-04  0.000000E+00  3.931282E-02 -3.505032E-02 -3.025511E-13  5.823758E-01  0.000000E+00
  1.456590E-03 -1.473954E-03  5.000000E-01  1.471301E-03 -1.546637E-03  0.000000E+00  4.208767E-02 -2.028930E-02 -1.462866E-13  2.517792E-01  0.000000E+00
  3.096410E-03 -2.028623E-03  5.000000E-01  3.127681E-03 -2.106907E-03  0.000000E+00  3.422724E-02 -9.933059E-03 -4.504453E-14  1.431227E-01  0.000000E+00
  5.335170E-03 -2.535224E-03  5.000000E-01  5.389050E-03 -2.618624E-03  0.000000E+00  2.728640E-02 -5.365228E-03 -2.112517E-15  1.298568E-01  0.000000E+00
  8.129670E-03 -2.988058E-03  5.000000E-01  8.211772E-03 -3.076031E-03  0.000000E+00  2.310806E-02 -3.231923E-03  7.291984E-15  1.099626E-01  0.000000E+00
  1.145600E-02 -3.369333E-03  5.000000E-01  1.157169E-02 -3.461157E-03  0.000000E+00  1.996150E-02 -1.811968E-03  5.108143E-15  7.472151E-02  0.000000E+00
  1.529970E-02 -3.612426E-03  5.000000E-01  1.545421E-02 -3.706704E-03  0.000000E+00  1.658376E-02 -6.060494E-04  1.900687E-15  3.678099E-02  0.000000E+00
  1.962420E-02 -3.625193E-03  5.000000E-01  1.982238E-02 -3.719600E-03  0.000000E+00  1.305369E-02  1.927706E-04  2.870163E-16  2.923236E-02  0.000000E+00
  2.439810E-02 -3.430264E-03  5.000000E-01  2.464449E-02 -3.522703E-03  0.000000E+00  1.067858E-02  4.295234E-04 -1.353540E-16  8.305722E-02  0.000000E+00
  2.966100E-02 -3.219177E-03  5.000000E-01  2.996054E-02 -3.309484E-03  0.000000E+00  1.027148E-02  3.647106E-04 -1.207927E-16  1.491760E-01  0.000000E+00
  3.543640E-02 -3.055617E-03  5.000000E-01  3.579427E-02 -3.144273E-03  0.000000E+00  1.103792E-02  2.761444E-04 -4.521967E-17  1.675990E-01  0.000000E+00
  4.172970E-02 -2.920485E-03  5.000000E-01  4.215112E-02 -3.007776E-03  0.000000E+00  1.182142E-02  2.504979E-04 -4.019705E-18  1.535394E-01  0.000000E+00
  4.854440E-02 -2.775099E-03  5.000000E-01  4.903464E-02 -2.860921E-03  0.000000E+00  1.215902E-02  3.020983E-04  7.367527E-18  1.344093E-01  0.000000E+00
  5.588220E-02 -2.565399E-03  5.000000E-01  5.644655E-02 -2.649104E-03  0.000000E+00  1.211714E-02  3.952547E-04  6.539553E-18  1.220558E-01  0.000000E+00
  6.375220E-02 -2.274538E-03  5.000000E-01  6.439603E-02 -2.355305E-03  0.000000E+00  1.193346E-02  4.749098E-04  2.103862E-18  1.196502E-01  0.000000E+00
  7.217040E-02 -1.914635E-03  5.000000E-01  7.289924E-02 -1.991768E-03  0.000000E+00  1.179720E-02  5.208062E-04 -2.022768E-19  1.226105E-01  0.000000E+00
  8.115500E-02 -1.506190E-03  5.000000E-01  8.197457E-02 -1.579198E-03  0.000000E+00  1.175920E-02  5.475473E-04 -2.392963E-20  1.243496E-01  0.000000E+00
  9.072040E-02 -1.051618E-03  5.000000E-01  9.163657E-02 -1.120035E-03  0.000000E+00  1.176917E-02  5.767909E-04 -6.911224E-19  1.217508E-01  0.000000E+00
  1.008780E-01 -5.388548E-04  5.000000E-01  1.018968E-01 -6.020938E-04  0.000000E+00  1.176699E-02  6.164586E-04  4.290679E-19  1.169064E-01  0.000000E+00
  1.116380E-01  4.591489E-05  5.000000E-01  1.127654E-01 -1.141861E-05  0.000000E+00  1.172238E-02  6.667781E-04 -4.616271E-19  1.122772E-01  0.000000E+00
  1.230100E-01  7.218224E-04  5.000000E-01  1.242523E-01  6.713148E-04  0.000000E+00  1.161615E-02  7.274928E-04 -3.701126E-18  1.086007E-01  0.000000E+00
  1.350030E-01  1.511579E-03  5.000000E-01  1.363664E-01  1.469047E-03  0.000000E+00  1.142623E-02  7.966012E-04 -3.835668E-18  1.064924E-01  0.000000E+00
  1.350030E-01  1.511579E-03  5.000000E-01  1.363664E-01  1.469047E-03  0.000000E+00  1.142623E-02  7.966012E-04 -3.835668E-18  1.064924E-01  0.000000E+00
  1.476220E-01  2.441100E-03  5.000000E-01  1.491128E-01  2.407955E-03  0.000000E+00  1.113358E-02  8.700690E-04 -1.640574E-18  1.069502E-01  0.000000E+00
  1.608730E-01  3.538121E-03  5.000000E-01  1.624976E-01  3.516054E-03  0.000000E+00  1.073380E-02  9.419836E-04  6.148979E-19  1.111880E-01  0.000000E+00
  1.747560E-01  4.828681E-03  5.000000E-01  1.765208E-01  4.819648E-03  0.000000E+00  1.024490E-02  1.004045E-03  1.202199E-19  1.201513E-01  0.000000E+00
  1.892730E-01  6.328264E-03  5.000000E-01  1.911844E-01  6.334375E-03  0.000000E+00  9.708620E-03  1.043856E-03 -1.060360E-19  1.342579E-01  0.000000E+00
  2.044180E-01  8.025804E-03  5.000000E-01  2.064824E-01  8.049059E-03  0.000000E+00  9.192418E-03  1.046954E-03  4.936437E-19  1.545752E-01  0.000000E+00
  2.201880E-01  9.853686E-03  5.000000E-01  2.224116E-01  9.895400E-03  0.000000E+00  8.757829E-03  1.015080E-03 -4.553363E-19  1.786323E-01  0.000000E+00
  2.365750E-01  1.175072E-02  5.000000E-01  2.389641E-01  1.181159E-02  0.000000E+00  8.413261E-03  9.665957E-04 -1.446756E-18  2.003788E-01  0.000000E+00
  2.535710E-01  1.368593E-02  5.000000E-01  2.561318E-01  1.376635E-02  0.000000E+00  8.130335E-03  9.130553E-04 -5.144005E-19  2.181646E-01  0.000000E+00
  2.711570E-01  1.563288E-02  5.000000E-01  2.738954E-01  1.573295E-02  0.000000E+00  7.888530E-03  8.561056E-04  8.913478E-20  2.339219E-01  0.000000E+00
  2.893100E-01  1.756301E-02  5.000000E-01  2.922317E-01  1.768257E-02  0.000000E+00  7.685126E-03  7.952456E-04 -1.217250E-18  2.488159E-01  0.000000E+00
  3.080020E-01  1.944276E-02  5.000000E-01  3.111125E-01  1.958131E-02  0.000000E+00  7.520749E-03  7.313548E-04 -1.388171E-19  2.624345E-01  0.000000E+00
  3.271950E-01  2.124376E-02  5.000000E-01  3.304993E-01  2.140050E-02  0.000000E+00  7.391368E-03  6.658998E-04  7.328413E-19  2.742185E-01  0.000000E+00
  3.468470E-01  2.293942E-02  5.000000E-01  3.503498E-01  2.311328E-02  0.000000E+00  7.291608E-03  5.999944E-04 -9.110521E-19  2.842222E-01  0.000000E+00
  3.669110E-01  2.450907E-02  5.000000E-01  3.706164E-01  2.469879E-02  0.000000E+00  7.217715E-03  5.348132E-04 -1.310579E-18  2.925334E-01  0.000000E+00
  3.873360E-01  2.593718E-02  5.000000E-01  3.912477E-01  2.614132E-02  0.000000E+00  7.168546E-03  4.703221E-04 -7.739801E-19  2.993504E-01  0.000000E+00
  4.080670E-01  2.720760E-02  5.000000E-01  4.121880E-01  2.742456E-02  0.000000E+00  7.145880E-03  4.048715E-04 -2.915727E-19  3.049834E-01  0.000000E+00
  4.290470E-01  2.829955E-02  5.000000E-01  4.333799E-01  2.852755E-02  0.000000E+00  7.151907E-03  3.370803E-04  5.743104E-20  3.095275E-01  0.000000E+00
  4.502140E-01  2.919341E-02  5.000000E-01  4.547606E-01  2.943043E-02  0.000000E+00  7.183063E-03  2.686005E-04  8.018648E-19  3.124634E-01  0.000000E+00
  4.715070E-01  2.988643E-02  5.000000E-01  4.762687E-01  3.013045E-02  0.000000E+00  7.226722E-03  2.033471E-04  1.193050E-18  3.132293E-01  0.000000E+00
  4.928620E-01  3.039336E-02  5.000000E-01  4.978393E-01  3.064250E-02  0.000000E+00  7.267838E-03  1.434310E-04  1.279596E-18  3.123906E-01  0.000000E+00
  5.142140E-01  3.073018E-02  5.000000E-01  5.194070E-01  3.098272E-02  0.000000E+00  7.297606E-03  8.870255E-05  1.096349E-18  3.110347E-01  0.000000E+00
  5.355000E-01  3.091219E-02  5.000000E-01  5.409079E-01  3.116657E-02  0.000000E+00  7.314030E-03  3.883671E-05 -1.939090E-18  3.095035E-01  0.000000E+00
  5.566560E-01  3.095574E-02  5.000000E-01  5.622776E-01  3.121056E-02  0.000000E+00  7.321105E-03 -8.257663E-06 -2.234797E-18  3.079700E-01  0.000000E+00
  4.727610E-01  7.338435E-02  5.000000E-01  4.775353E-01  7.406765E-02  0.000000E+00  1.329910E-02 -1.053870E-03  1.544291E-18 -5.872804E-01  0.000000E+00
  4.515970E-01  7.498230E-02  5.000000E-01  4.561576E-01  7.568174E-02  0.000000E+00  1.372980E-02 -9.786063E-04 -8.583441E-20 -6.140599E-01  0.000000E+00
  4.305020E-01  7.639988E-02  5.000000E-01  4.348496E-01  7.711364E-02  0.000000E+00  1.416029E-02 -8.891986E-04 -1.813065E-18 -6.399442E-01  0.000000E+00
  4.095340E-01  7.762688E-02  5.000000E-01  4.136698E-01  7.835303E-02  0.000000E+00  1.457938E-02 -7.892217E-04 -1.032143E-18 -6.658158E-01  0.000000E+00
  3.887520E-01  7.866285E-02  5.000000E-01  3.926780E-01  7.939946E-02  0.000000E+00  1.498971E-02 -6.803351E-04 -9.663589E-19 -6.926970E-01  0.000000E+00
  3.682080E-01  7.950575E-02  5.000000E-01  3.719265E-01  8.025087E-02  0.000000E+00  1.540358E-02 -5.597791E-04 -1.773692E-18 -7.208218E-01  0.000000E+00
  3.479570E-01  8.014920E-02  5.000000E-01  3.514710E-01  8.090081E-02  0.000000E+00  1.583231E-02 -4.233981E-04  8.493911E-20 -7.499204E-01  0.000000E+00
  3.280470E-01  8.058422E-02  5.000000E-01  3.313599E-01  8.134023E-02  0.000000E+00  1.628109E-02 -2.689469E-04  1.628723E-19 -7.798219E-01  0.000000E+00
  3.085240E-01  8.080546E-02  5.000000E-01  3.116397E-01  8.156371E-02  0.000000E+00  1.675161E-02 -9.632427E-05 -5.273395E-19 -8.107963E-01  0.000000E+00
  2.894320E-01  8.081193E-02  5.000000E-01  2.923549E-01  8.157024E-02  0.000000E+00  1.724768E-02  9.645200E-05 -2.114484E-19 -8.433164E-01  0.000000E+00
  2.708110E-01  8.060101E-02  5.000000E-01  2.735459E-01  8.135719E-02  0.000000E+00  1.778093E-02  3.144252E-04  2.806322E-19 -8.791366E-01  0.000000E+00
  2.526960E-01  8.016794E-02  5.000000E-01  2.552479E-01  8.091974E-02  0.000000E+00  1.838538E-02  5.661745E-04 -7.102074E-19 -9.220764E-01  0.000000E+00
  2.351200E-01  7.950778E-02  5.000000E-01  2.374944E-01  8.025292E-02  0.000000E+00  1.912221E-02  8.789300E-04 -1.497581E-18 -9.727845E-01  0.000000E+00
  2.181120E-01  7.858904E-02  5.000000E-01  2.203147E-01  7.932490E-02  0.000000E+00  2.003184E-02  1.299730E-03 -1.215079E-18 -1.025142E+00  0.000000E+00
  2.017010E-01  7.735511E-02  5.000000E-01  2.037380E-01  7.807851E-02  0.000000E+00  2.108156E-02  1.856881E-03 -2.100022E-18 -1.073430E+00  0.000000E+00
  1.859190E-01  7.577145E-02  5.000000E-01  1.877966E-01  7.647885E-02  0.000000E+00  2.219360E-02  2.552169E-03 -2.285855E-18 -1.114736E+00  0.000000E+00
  1.707920E-01  7.382098E-02  5.000000E-01  1.725168E-01  7.450869E-02  0.000000E+00  2.328793E-02  3.384822E-03 -3.209853E-18 -1.144621E+00  0.000000E+00
  1.563470E-01  7.149542E-02  5.000000E-01  1.579259E-01  7.215965E-02  0.000000E+00  2.428038E-02  4.347134E-03 -2.807661E-18 -1.157562E+00  0.000000E+00
  1.426070E-01  6.879745E-02  5.000000E-01  1.440472E-01  6.943443E-02  0.000000E+00  2.508108E-02  5.408088E-03 -2.366214E-18 -1.149478E+00  0.000000E+00
  1.295900E-01  6.574731E-02  5.000000E-01  1.308987E-01  6.635348E-02  0.000000E+00  2.561312E-02  6.511994E-03 -4.652080E-18 -1.119220E+00  0.000000E+00
  1.173060E-01  6.238367E-02  5.000000E-01  1.184907E-01  6.295588E-02  0.000000E+00  2.583500E-02  7.597308E-03 -5.906492E-18 -1.067722E+00  0.000000E+00
  1.057600E-01  5.875587E-02  5.000000E-01  1.068281E-01  5.929144E-02  0.000000E+00  2.574513E-02  8.611846E-03 -3.038967E-18 -9.971332E-01  0.000000E+00
  9.495290E-02  5.491995E-02  5.000000E-01  9.591182E-02  5.541678E-02  0.000000E+00  2.537619E-02  9.514810E-03  1.339288E-18 -9.110793E-01  0.000000E+00
  8.487680E-02  5.093673E-02  5.000000E-01  8.573396E-02  5.139333E-02  0.000000E+00  2.478519E-02  1.028342E-02  7.182612E-18 -8.128283E-01  0.000000E+00
  8.487680E-02  5.093673E-02  5.000000E-01  8.573396E-02  5.139333E-02  0.000000E+00  2.478519E-02  1.028342E-02  7.182612E-18 -8.128283E-01  0.000000E+00
  7.552090E-02  4.686751E-02  5.000000E-01  7.628358E-02  4.728302E-02  0.000000E+00  2.402293E-02  1.090629E-02  1.364343E-17 -7.035631E-01  0.000000E+00
  6.687020E-02  4.277077E-02  5.000000E-01  6.754551E-02  4.314490E-02  0.000000E+00  2.311408E-02  1.135326E-02  1.471706E-17 -5.859743E-01  0.000000E+00
  5.889940E-02  3.871007E-02  5.000000E-01  5.949422E-02  3.904320E-02  0.000000E+00  2.209300E-02  1.158921E-02  1.312392E-17 -4.671145E-01  0.000000E+00
  5.157140E-02  3.474995E-02  5.000000E-01  5.209221E-02  3.504309E-02  0.000000E+00  2.104947E-02  1.163867E-02  8.971377E-18 -3.551511E-01  0.000000E+00
  4.484650E-02  3.094326E-02  5.000000E-01  4.529940E-02  3.119795E-02  0.000000E+00  2.011971E-02  1.161770E-02  4.307560E-18 -2.542965E-01  0.000000E+00
  3.869820E-02  2.732030E-02  5.000000E-01  3.908901E-02  2.753840E-02  0.000000E+00  1.943383E-02  1.168731E-02 -3.850596E-18 -1.635692E-01  0.000000E+00
  3.311550E-02  2.389281E-02  5.000000E-01  3.344993E-02  2.407630E-02  0.000000E+00  1.905055E-02  1.196293E-02 -2.123595E-17 -7.776663E-02  0.000000E+00
  2.809130E-02  2.066810E-02  5.000000E-01  2.837499E-02  2.081903E-02  0.000000E+00  1.882590E-02  1.240765E-02 -4.946742E-17  1.834909E-02  0.000000E+00
  2.362330E-02  1.765009E-02  5.000000E-01  2.386187E-02  1.777053E-02  0.000000E+00  1.837247E-02  1.267139E-02 -9.802383E-17  1.348269E-01  0.000000E+00
  1.966610E-02  1.486281E-02  5.000000E-01  1.986471E-02  1.495511E-02  0.000000E+00  1.747989E-02  1.227556E-02 -1.604320E-16  2.460060E-01  0.000000E+00
  1.609460E-02  1.235969E-02  5.000000E-01  1.625714E-02  1.242671E-02  0.000000E+00  1.646667E-02  1.131634E-02 -1.075467E-16  3.249039E-01  0.000000E+00
  1.282740E-02  1.016018E-02  5.000000E-01  1.295694E-02  1.020498E-02  0.000000E+00  1.590335E-02  1.049088E-02  4.818580E-16  3.742218E-01  0.000000E+00
  9.860990E-03  8.244816E-03  5.000000E-01  9.960576E-03  8.270283E-03  0.000000E+00  1.618866E-02  1.043291E-02  2.301275E-15  4.119443E-01  0.000000E+00
  7.251350E-03  6.567684E-03  5.000000E-01  7.324581E-03  6.576213E-03  0.000000E+00  1.740001E-02  1.139251E-02  5.429570E-15  4.525312E-01  0.000000E+00
  5.038810E-03  5.095380E-03  5.000000E-01  5.089697E-03  5.089040E-03  0.000000E+00  1.942525E-02  1.343131E-02  6.669539E-15  4.986058E-01  0.000000E+00
  3.239710E-03  3.810852E-03  5.000000E-01  3.272428E-03  3.791540E-03  0.000000E+00  2.190139E-02  1.667987E-02 -4.661025E-15  5.568759E-01  0.000000E+00
  1.861880E-03  2.704829E-03  5.000000E-01  1.880684E-03  2.674348E-03  0.000000E+00  2.353233E-02  2.089331E-02 -4.863836E-14  6.440509E-01  0.000000E+00
  9.013910E-04  1.776263E-03  5.000000E-01  9.104951E-04  1.736404E-03  0.000000E+00  2.129008E-02  2.375561E-02 -1.459596E-13  7.811043E-01  0.000000E+00
  3.295630E-04  1.033453E-03  5.000000E-01  3.328923E-04  9.860924E-04  0.000000E+00  1.246378E-02  1.845851E-02 -2.938117E-13  9.499249E-01  0.000000E+00
  7.194000E-05  4.916952E-04  5.000000E-01  7.266764E-05  4.388636E-04  0.000000E+00  1.681869E-03 -1.697578E-03 -4.421376E-13  1.027906E+00  0.000000E+00
  4.516100E-06  1.655337E-04  5.000000E-01  4.562832E-06  1.094082E-04  0.000000E+00 -2.616242E-03 -2.440411E-02 -5.181404E-13  9.237524E-01  0.000000E+00
 -1.112850E-09  5.721933E-05  5.000000E-01  0.000000E+00  0.000000E+00  0.000000E+00 -1.315656E-03 -2.542356E-02 -5.296315E-13  8.212421E-01  0.000000E+00