 Title = "ADflow Slice Data"
Variables =  "CoordinateX"  "CoordinateY"  "CoordinateZ"  "XoC"  "YoC"  "ZoC" "VelocityX" "VelocityY" "VelocityZ" "CoefPressure" "Mach" 
Zone T= "Slice_0001 None Absolute Regular z = 0.50000000"
 Nodes =          192  Elements=          184  ZONETYPE=FELINESEG
 DATAPACKING=POINT
  5.566560E-01  1.850355E-02  5.000000E-01  5.622775E-01  1.872995E-02  0.000000E+00  7.921606E-03  9.523094E-04  3.060174E-18  9.838435E-02  0.000000E+00
  5.776220E-01  2.150818E-02  5.000000E-01  5.834552E-01  2.176491E-02  0.000000E+00  6.212761E-03  9.598098E-04  5.282505E-18  1.504096E-01  0.000000E+00
  5.983370E-01  2.502558E-02  5.000000E-01  6.043794E-01  2.531784E-02  0.000000E+00  4.642965E-03  8.132526E-04  3.918897E-18  2.231472E-01  0.000000E+00
  6.187480E-01  2.873151E-02  5.000000E-01  6.249965E-01  2.906120E-02  0.000000E+00  3.386792E-03  6.139654E-04 -5.394892E-19  2.923562E-01  0.000000E+00
  6.388030E-01  3.234224E-02  5.000000E-01  6.452541E-01  3.270839E-02  0.000000E+00  2.466178E-03  4.303742E-04 -2.460362E-18  3.485123E-01  0.000000E+00
  6.584530E-01  3.561934E-02  5.000000E-01  6.651025E-01  3.601859E-02  0.000000E+00  1.850156E-03  2.893704E-04 -7.459171E-19  3.923227E-01  0.000000E+00
  6.776550E-01  3.836903E-02  5.000000E-01  6.844984E-01  3.879604E-02  0.000000E+00  1.508314E-03  1.923395E-04  2.496938E-18  4.264493E-01  0.000000E+00
  6.963720E-01  4.042281E-02  5.000000E-01  7.034044E-01  4.087056E-02  0.000000E+00  1.417875E-03  1.258303E-04  1.732395E-18  4.524133E-01  0.000000E+00
  7.145680E-01  4.166318E-02  5.000000E-01  7.217842E-01  4.212345E-02  0.000000E+00  1.557119E-03  6.687728E-05  2.030776E-19  4.703906E-01  0.000000E+00
  7.322140E-01  4.204114E-02  5.000000E-01  7.396084E-01  4.250523E-02  0.000000E+00  1.904358E-03 -1.156162E-05  4.302816E-19  4.807055E-01  0.000000E+00
  7.492860E-01  4.156594E-02  5.000000E-01  7.568528E-01  4.202524E-02  0.000000E+00  2.441359E-03 -1.364717E-04  1.155003E-18  4.837413E-01  0.000000E+00
  7.657630E-01  4.028805E-02  5.000000E-01  7.734962E-01  4.073444E-02  0.000000E+00  3.153289E-03 -3.316570E-04  1.059871E-18  4.798891E-01  0.000000E+00
  7.816300E-01  3.828269E-02  5.000000E-01  7.895234E-01  3.870883E-02  0.000000E+00  4.021275E-03 -6.052749E-04  7.765028E-19  4.689705E-01  0.000000E+00
  7.968740E-01  3.569368E-02  5.000000E-01  8.049214E-01  3.609367E-02  0.000000E+00  4.994858E-03 -9.261474E-04  1.890124E-18  4.471426E-01  0.000000E+00
  8.114890E-01  3.279266E-02  5.000000E-01  8.196840E-01  3.316336E-02  0.000000E+00  5.986558E-03 -1.238478E-03  1.510112E-18  4.139409E-01  0.000000E+00
  8.254710E-01  2.980134E-02  5.000000E-01  8.338072E-01  3.014183E-02  0.000000E+00  6.919959E-03 -1.503302E-03  1.980572E-18  3.756669E-01  0.000000E+00
  8.388180E-01  2.686444E-02  5.000000E-01  8.472890E-01  2.717526E-02  0.000000E+00  7.758078E-03 -1.706893E-03  8.737324E-19  3.370946E-01  0.000000E+00
  8.515320E-01  2.406783E-02  5.000000E-01  8.601314E-01  2.435042E-02  0.000000E+00  8.488031E-03 -1.849579E-03 -1.370306E-18  3.000959E-01  0.000000E+00
  8.636180E-01  2.145731E-02  5.000000E-01  8.723394E-01  2.171354E-02  0.000000E+00  9.106520E-03 -1.937412E-03 -5.622961E-20  2.655963E-01  0.000000E+00
  8.750810E-01  1.905365E-02  5.000000E-01  8.839182E-01  1.928560E-02  0.000000E+00  9.616518E-03 -1.979104E-03  2.994099E-18  2.342296E-01  0.000000E+00
  8.859290E-01  1.686146E-02  5.000000E-01  8.948757E-01  1.707127E-02  0.000000E+00  1.002684E-02 -1.984414E-03  6.212632E-18  2.063656E-01  0.000000E+00
  8.961710E-01  1.487580E-02  5.000000E-01  9.052212E-01  1.506555E-02  0.000000E+00  1.034992E-02 -1.962616E-03  5.340573E-18  1.820281E-01  0.000000E+00
  9.058170E-01  1.308661E-02  5.000000E-01  9.149646E-01  1.325830E-02  0.000000E+00  1.059861E-02 -1.921531E-03  1.053733E-18  1.610006E-01  0.000000E+00
  9.148770E-01  1.148123E-02  5.000000E-01  9.241161E-01  1.163671E-02  0.000000E+00  1.078432E-02 -1.867191E-03 -7.931418E-19  1.429937E-01  0.000000E+00
  9.148770E-01  1.148123E-02  5.000000E-01  9.241161E-01  1.163671E-02  0.000000E+00  1.078432E-02 -1.867191E-03 -7.931418E-19  1.429937E-01  0.000000E+00
  9.233640E-01  1.004577E-02  5.000000E-01  9.326888E-01  1.018675E-02  0.000000E+00  1.091688E-02 -1.804376E-03 -2.648515E-19  1.277408E-01  0.000000E+00
  9.312880E-01  8.766352E-03  5.000000E-01  9.406928E-01  8.894414E-03  0.000000E+00  1.100503E-02 -1.736853E-03 -4.520074E-19  1.149825E-01  0.000000E+00
  9.386620E-01  7.629261E-03  5.000000E-01  9.481413E-01  7.745839E-03  0.000000E+00  1.105627E-02 -1.667441E-03 -2.455264E-18  1.044316E-01  0.000000E+00
  9.454960E-01  6.621711E-03  5.000000E-01  9.550443E-01  6.728115E-03  0.000000E+00  1.107662E-02 -1.598103E-03 -2.328471E-18  9.579694E-02  0.000000E+00
  9.518040E-01  5.731537E-03  5.000000E-01  9.614160E-01  5.828951E-03  0.000000E+00  1.107129E-02 -1.530371E-03 -3.570401E-20  8.885337E-02  0.000000E+00
  9.575950E-01  4.947845E-03  5.000000E-01  9.672655E-01  5.037345E-03  0.000000E+00  1.104573E-02 -1.465533E-03  1.216986E-18  8.338468E-02  0.000000E+00
  9.628810E-01  4.260583E-03  5.000000E-01  9.726048E-01  4.343142E-03  0.000000E+00  1.100640E-02 -1.404653E-03  1.780532E-18  7.917475E-02  0.000000E+00
  9.676710E-01  3.660812E-03  5.000000E-01  9.774432E-01  3.737314E-03  0.000000E+00  1.096146E-02 -1.348840E-03  1.548921E-18  7.604581E-02  0.000000E+00
  9.719750E-01  3.140542E-03  5.000000E-01  9.817907E-01  3.211790E-03  0.000000E+00  1.091918E-02 -1.298916E-03  1.609408E-18  7.383402E-02  0.000000E+00
  9.758020E-01  2.692714E-03  5.000000E-01  9.856563E-01  2.759440E-03  0.000000E+00  1.088020E-02 -1.254760E-03 -5.869196E-19  7.241378E-02  0.000000E+00
  9.791590E-01  2.311229E-03  5.000000E-01  9.890472E-01  2.374102E-03  0.000000E+00  1.081855E-02 -1.213474E-03 -2.377450E-19  7.153547E-02  0.000000E+00
  9.820540E-01  1.990788E-03  5.000000E-01  9.919715E-01  2.050425E-03  0.000000E+00  1.066628E-02 -1.168483E-03  9.695527E-18  7.138275E-02  0.000000E+00
  9.844930E-01  1.726941E-03  5.000000E-01  9.944351E-01  1.783914E-03  0.000000E+00  1.030929E-02 -1.105192E-03  3.350981E-17  7.259376E-02  0.000000E+00
  9.864820E-01  1.515969E-03  5.000000E-01  9.964442E-01  1.570811E-03  0.000000E+00  9.484987E-03 -9.890537E-04  5.385373E-17  7.175106E-02  0.000000E+00
  9.880240E-01  1.354918E-03  5.000000E-01  9.980017E-01  1.408134E-03  0.000000E+00  7.810874E-03 -8.202963E-04 -3.635077E-17  6.345897E-02  0.000000E+00
  9.891220E-01  1.241467E-03  5.000000E-01  9.991108E-01  1.293537E-03  0.000000E+00  7.002162E-03 -8.235116E-04 -4.878230E-16  8.309758E-02  0.000000E+00
  9.897810E-01  1.174046E-03  5.000000E-01  9.997765E-01  1.225435E-03  0.000000E+00  1.359629E-02 -3.222482E-04 -1.461522E-15  1.704911E-01  0.000000E+00
  9.900000E-01  1.151682E-03  5.000000E-01  9.999977E-01  1.202845E-03  0.000000E+00  1.156353E-02 -1.618268E-03 -1.899108E-15 -4.178439E-02  0.000000E+00
  9.900000E-01  1.337902E-03  5.000000E-01  9.999977E-01  1.390946E-03  0.000000E+00  1.073603E-03 -1.287869E-02 -1.203563E-15 -1.655998E-01  0.000000E+00
  9.900000E-01  1.524113E-03  5.000000E-01  9.999977E-01  1.579037E-03  0.000000E+00 -6.702359E-04 -1.371730E-02 -3.120961E-16 -3.246062E-03  0.000000E+00
  9.900000E-01  1.710334E-03  5.000000E-01  9.999977E-01  1.767139E-03  0.000000E+00 -3.926711E-04  1.728498E-03  4.243374E-16 -1.295464E-02  0.000000E+00
  9.900000E-01  1.896555E-03  5.000000E-01  9.999977E-01  1.955240E-03  0.000000E+00  6.928512E-04  2.115669E-03  1.448790E-15 -1.170212E-01  0.000000E+00
  9.900000E-01  2.082775E-03  5.000000E-01  9.999977E-01  2.143341E-03  0.000000E+00  6.831178E-03 -4.129120E-03  2.154339E-15 -3.043997E-02  0.000000E+00
  9.900000E-01  2.082775E-03  5.000000E-01  9.999977E-01  2.143341E-03  0.000000E+00  6.831178E-03 -4.129120E-03  2.154339E-15 -3.043997E-02  0.000000E+00
  9.897920E-01  2.122715E-03  5.000000E-01  9.997876E-01  2.183684E-03  0.000000E+00  7.356592E-03 -2.140185E-03  1.527991E-15  9.293226E-02  0.000000E+00
  9.891660E-01  2.242659E-03  5.000000E-01  9.991553E-01  2.304840E-03  0.000000E+00  2.427540E-03 -3.891351E-04  5.002997E-16  3.148351E-02  0.000000E+00
  9.881230E-01  2.443116E-03  5.000000E-01  9.981017E-01  2.507321E-03  0.000000E+00  2.278547E-03 -4.339412E-04  4.662780E-17  2.048774E-02  0.000000E+00
  9.866580E-01  2.724867E-03  5.000000E-01  9.966220E-01  2.791917E-03  0.000000E+00  2.741374E-03 -5.354314E-04 -4.681226E-17  2.803811E-02  0.000000E+00
  9.847700E-01  3.089098E-03  5.000000E-01  9.947149E-01  3.159826E-03  0.000000E+00  2.766029E-03 -5.347940E-04 -3.211424E-17  2.927332E-02  0.000000E+00
  9.824550E-01  3.537382E-03  5.000000E-01  9.923765E-01  3.612637E-03  0.000000E+00  2.650607E-03 -5.136758E-04 -1.135959E-17  2.737053E-02  0.000000E+00
  9.797070E-01  4.071713E-03  5.000000E-01  9.896008E-01  4.152364E-03  0.000000E+00  2.545441E-03 -4.963972E-04 -1.714766E-18  2.510871E-02  0.000000E+00
  9.765220E-01  4.694631E-03  5.000000E-01  9.863836E-01  4.781573E-03  0.000000E+00  2.467670E-03 -4.843296E-04  3.890405E-19  2.234054E-02  0.000000E+00
  9.728930E-01  5.409253E-03  5.000000E-01  9.827179E-01  5.503412E-03  0.000000E+00  2.414368E-03 -4.774209E-04  1.204630E-18  1.889332E-02  0.000000E+00
  9.688130E-01  6.219367E-03  5.000000E-01  9.785967E-01  6.321707E-03  0.000000E+00  2.379027E-03 -4.747035E-04  5.686574E-19  1.478904E-02  0.000000E+00
  9.642740E-01  7.129591E-03  5.000000E-01  9.740119E-01  7.241123E-03  0.000000E+00  2.353105E-03 -4.746558E-04 -4.925979E-19  1.006964E-02  0.000000E+00
  9.592670E-01  8.145487E-03  5.000000E-01  9.689543E-01  8.267278E-03  0.000000E+00  2.329233E-03 -4.759519E-04  1.434956E-18  4.681360E-03  0.000000E+00
  9.537850E-01  9.273668E-03  5.000000E-01  9.634170E-01  9.406853E-03  0.000000E+00  2.302633E-03 -4.777111E-04  4.265110E-18 -1.410169E-03  0.000000E+00
  9.478160E-01  1.052207E-02  5.000000E-01  9.573877E-01  1.066786E-02  0.000000E+00  2.270551E-03 -4.794404E-04  3.505352E-18 -8.298432E-03  0.000000E+00
  9.413520E-01  1.190011E-02  5.000000E-01  9.508584E-01  1.205982E-02  0.000000E+00  2.232042E-03 -4.810045E-04  4.680785E-19 -1.611936E-02  0.000000E+00
  9.343800E-01  1.341902E-02  5.000000E-01  9.438160E-01  1.359407E-02  0.000000E+00  2.187251E-03 -4.824768E-04  8.313593E-19 -2.502485E-02  0.000000E+00
  9.268920E-01  1.509158E-02  5.000000E-01  9.362524E-01  1.528352E-02  0.000000E+00  2.137290E-03 -4.840958E-04  6.102360E-19 -3.525787E-02  0.000000E+00
  9.188750E-01  1.693319E-02  5.000000E-01  9.281544E-01  1.714372E-02  0.000000E+00  2.084514E-03 -4.863696E-04 -1.153026E-18 -4.710292E-02  0.000000E+00
  9.103190E-01  1.896120E-02  5.000000E-01  9.195120E-01  1.919221E-02  0.000000E+00  2.032862E-03 -4.901913E-04 -7.539698E-19 -6.094730E-02  0.000000E+00
  9.012130E-01  2.119537E-02  5.000000E-01  9.103141E-01  2.144895E-02  0.000000E+00  1.988708E-03 -4.970732E-04  6.468718E-19 -7.725740E-02  0.000000E+00
  8.915460E-01  2.365748E-02  5.000000E-01  9.005494E-01  2.393592E-02  0.000000E+00  1.962367E-03 -5.098226E-04  1.494531E-18 -9.666469E-02  0.000000E+00
  8.813080E-01  2.637078E-02  5.000000E-01  8.902081E-01  2.667662E-02  0.000000E+00  1.972551E-03 -5.338470E-04 -1.262655E-18 -1.202362E-01  0.000000E+00
  8.704900E-01  2.935816E-02  5.000000E-01  8.792808E-01  2.969417E-02  0.000000E+00  2.052557E-03 -5.789141E-04 -4.080599E-18 -1.495679E-01  0.000000E+00
  8.704900E-01  2.935816E-02  5.000000E-01  8.792808E-01  2.969417E-02  0.000000E+00  2.052557E-03 -5.789141E-04 -4.080599E-18 -1.495679E-01  0.000000E+00
  8.590830E-01  3.263978E-02  5.000000E-01  8.677586E-01  3.300893E-02  0.000000E+00  2.250856E-03 -6.603930E-04 -3.330491E-18 -1.862565E-01  0.000000E+00
  8.470810E-01  3.622753E-02  5.000000E-01  8.556354E-01  3.663291E-02  0.000000E+00  2.629345E-03 -7.987331E-04 -6.763027E-19 -2.325141E-01  0.000000E+00
  8.344780E-01  4.011589E-02  5.000000E-01  8.429051E-01  4.056054E-02  0.000000E+00  3.280997E-03 -1.022748E-03  5.495301E-19 -2.940266E-01  0.000000E+00
  8.212700E-01  4.426549E-02  5.000000E-01  8.295638E-01  4.475204E-02  0.000000E+00  4.380959E-03 -1.374789E-03 -1.242507E-18 -3.829891E-01  0.000000E+00
  8.074550E-01  4.857762E-02  5.000000E-01  8.156092E-01  4.910772E-02  0.000000E+00  6.213320E-03 -1.887650E-03 -4.817957E-19 -5.111237E-01  0.000000E+00
  7.930350E-01  5.285773E-02  5.000000E-01  8.010436E-01  5.343106E-02  0.000000E+00  9.031973E-03 -2.486447E-03  1.943910E-18 -6.671504E-01  0.000000E+00
  7.780130E-01  5.677514E-02  5.000000E-01  7.858699E-01  5.738803E-02  0.000000E+00  1.274013E-02 -2.893336E-03  3.454343E-18 -8.106635E-01  0.000000E+00
  7.623950E-01  5.994565E-02  5.000000E-01  7.700942E-01  6.059056E-02  0.000000E+00  1.672612E-02 -2.800493E-03  5.501888E-18 -9.109046E-01  0.000000E+00
  7.461930E-01  6.220293E-02  5.000000E-01  7.537286E-01  6.287063E-02  0.000000E+00  2.015556E-02 -2.112730E-03  5.977901E-18 -9.520874E-01  0.000000E+00
  7.294180E-01  6.346598E-02  5.000000E-01  7.367842E-01  6.414643E-02  0.000000E+00  2.231764E-02 -9.848799E-04  1.644908E-18 -9.184864E-01  0.000000E+00
  7.120900E-01  6.372921E-02  5.000000E-01  7.192812E-01  6.441233E-02  0.000000E+00  2.280532E-02  2.257623E-04 -3.438401E-18 -8.116038E-01  0.000000E+00
  6.942280E-01  6.310169E-02  5.000000E-01  7.012388E-01  6.377847E-02  0.000000E+00  2.165738E-02  1.105084E-03 -3.659558E-18 -6.575119E-01  0.000000E+00
  6.758590E-01  6.184473E-02  5.000000E-01  6.826843E-01  6.250882E-02  0.000000E+00  1.934200E-02  1.399847E-03 -2.675729E-18 -5.020805E-01  0.000000E+00
  6.570120E-01  6.038463E-02  5.000000E-01  6.636470E-01  6.103397E-02  0.000000E+00  1.656581E-02  1.181381E-03 -1.177424E-18 -3.832657E-01  0.000000E+00
  6.377220E-01  5.914592E-02  5.000000E-01  6.441622E-01  5.978275E-02  0.000000E+00  1.395838E-02  7.720774E-04  1.488646E-18 -3.002792E-01  0.000000E+00
  6.180260E-01  5.826929E-02  5.000000E-01  6.242673E-01  5.889727E-02  0.000000E+00  1.182629E-02  4.012755E-04  1.987911E-18 -2.408019E-01  0.000000E+00
  5.979670E-01  5.783688E-02  5.000000E-01  6.040057E-01  5.846049E-02  0.000000E+00  1.021558E-02  1.000958E-04  8.133741E-19 -2.037695E-01  0.000000E+00
  5.775910E-01  5.791150E-02  5.000000E-01  5.834239E-01  5.853586E-02  0.000000E+00  9.086596E-03 -1.474477E-04  9.824118E-19 -1.877480E-01  0.000000E+00
  5.569470E-01  5.853125E-02  5.000000E-01  5.625714E-01  5.916187E-02  0.000000E+00  8.392159E-03 -3.577811E-04  6.246224E-19 -1.929477E-01  0.000000E+00
  5.360860E-01  5.969717E-02  5.000000E-01  5.414998E-01  6.033957E-02  0.000000E+00  8.108394E-03 -5.376537E-04  1.339240E-18 -2.172695E-01  0.000000E+00
  5.150640E-01  6.131323E-02  5.000000E-01  5.202655E-01  6.197194E-02  0.000000E+00  8.213105E-03 -6.894284E-04  2.714506E-18 -2.557549E-01  0.000000E+00
  4.939370E-01  6.323003E-02  5.000000E-01  4.989251E-01  6.390811E-02  0.000000E+00  8.665790E-03 -8.179392E-04  1.619436E-18 -3.052866E-01  0.000000E+00
  4.727610E-01  6.529870E-02  5.000000E-01  4.775353E-01  6.599766E-02  0.000000E+00  9.409469E-03 -9.208869E-04  4.222330E-19 -3.619516E-01  0.000000E+00
  5.770140E-06 -1.520700E-04  5.000000E-01  5.829535E-06 -1.140730E-04  0.000000E+00  5.865157E-03 -3.726894E-02 -4.287021E-13  8.563879E-01  0.000000E+00
  9.104010E-05 -4.917977E-04  5.000000E-01  9.196061E-05 -4.572315E-04  0.000000E+00  2.220146E-02 -4.430558E-02 -3.570218E-13  8.118993E-01  0.000000E+00
  4.796980E-04 -1.040867E-03  5.000000E-01  4.845434E-04 -1.011846E-03  0.000000E+00  3.783860E-02 -3.840950E-02 -2.308843E-13  4.978749E-01  0.000000E+00
  1.456590E-03 -1.726886E-03  5.000000E-01  1.471301E-03 -1.704793E-03  0.000000E+00  3.900317E-02 -2.303904E-02 -1.083632E-13  2.195326E-01  0.000000E+00
  3.096410E-03 -2.462029E-03  5.000000E-01  3.127681E-03 -2.447359E-03  0.000000E+00  3.205467E-02 -1.284128E-02 -3.164284E-14  1.378485E-01  0.000000E+00
  5.335170E-03 -3.222690E-03  5.000000E-01  5.389049E-03 -3.215702E-03  0.000000E+00  2.655162E-02 -8.252820E-03 -1.997273E-16  1.237520E-01  0.000000E+00
  8.129670E-03 -4.001125E-03  5.000000E-01  8.211770E-03 -4.001999E-03  0.000000E+00  2.349674E-02 -6.037539E-03  6.035260E-15  9.322624E-02  0.000000E+00
  1.145600E-02 -4.777009E-03  5.000000E-01  1.157169E-02 -4.785717E-03  0.000000E+00  2.116217E-02 -4.423820E-03  3.958146E-15  4.437259E-02  0.000000E+00
  1.529970E-02 -5.477518E-03  5.000000E-01  1.545421E-02 -5.493301E-03  0.000000E+00  1.833075E-02 -2.821929E-03  1.406544E-15 -1.025487E-02  0.000000E+00
  1.962420E-02 -5.996377E-03  5.000000E-01  1.982238E-02 -6.017400E-03  0.000000E+00  1.504216E-02 -1.511229E-03  1.833238E-16 -3.541453E-02  0.000000E+00
  2.439810E-02 -6.345747E-03  5.000000E-01  2.464449E-02 -6.370298E-03  0.000000E+00  1.271865E-02 -9.312870E-04 -1.161451E-16  7.254796E-03  0.000000E+00
  2.966100E-02 -6.727217E-03  5.000000E-01  2.996054E-02 -6.755620E-03  0.000000E+00  1.239986E-02 -9.506033E-04 -9.315449E-17  6.714589E-02  0.000000E+00
  3.543640E-02 -7.207603E-03  5.000000E-01  3.579426E-02 -7.240858E-03  0.000000E+00  1.335360E-02 -1.141491E-03 -3.082347E-17  7.532028E-02  0.000000E+00
  4.172970E-02 -7.762295E-03  5.000000E-01  4.215112E-02 -7.801151E-03  0.000000E+00  1.434794E-02 -1.245750E-03  2.498260E-18  4.544780E-02  0.000000E+00
  4.854440E-02 -8.343119E-03  5.000000E-01  4.903464E-02 -8.387840E-03  0.000000E+00  1.485341E-02 -1.180026E-03  8.258871E-18  7.867936E-03  0.000000E+00
  5.588220E-02 -8.882449E-03  5.000000E-01  5.644654E-02 -8.932617E-03  0.000000E+00  1.492135E-02 -9.956683E-04  5.024333E-18 -2.241927E-02  0.000000E+00
  6.375220E-02 -9.351873E-03  5.000000E-01  6.439601E-02 -9.406782E-03  0.000000E+00  1.481684E-02 -7.967240E-04  2.944414E-18 -4.026073E-02  0.000000E+00
  7.217040E-02 -9.753821E-03  5.000000E-01  7.289923E-02 -9.812789E-03  0.000000E+00  1.476364E-02 -6.350438E-04  1.802014E-18 -5.054449E-02  0.000000E+00
  8.115500E-02 -1.009846E-02  5.000000E-01  8.197456E-02 -1.016091E-02  0.000000E+00  1.481981E-02 -4.959188E-04  2.128849E-18 -6.133537E-02  0.000000E+00
  9.072040E-02 -1.037341E-02  5.000000E-01  9.163656E-02 -1.043864E-02  0.000000E+00  1.491026E-02 -3.415625E-04  1.376469E-18 -7.655254E-02  0.000000E+00
  1.008780E-01 -1.054728E-02  5.000000E-01  1.018967E-01 -1.061427E-02  0.000000E+00  1.493705E-02 -1.536214E-04  9.378698E-19 -9.321203E-02  0.000000E+00
  1.116380E-01 -1.058378E-02  5.000000E-01  1.127654E-01 -1.065112E-02  0.000000E+00  1.483101E-02  6.916295E-05  1.515440E-19 -1.073363E-01  0.000000E+00
  1.230100E-01 -1.043786E-02  5.000000E-01  1.242522E-01 -1.050374E-02  0.000000E+00  1.453317E-02  3.212602E-04 -1.226986E-18 -1.168234E-01  0.000000E+00
  1.350030E-01 -1.005839E-02  5.000000E-01  1.363664E-01 -1.012044E-02  0.000000E+00  1.398700E-02  5.879401E-04 -9.608615E-19 -1.196174E-01  0.000000E+00
  1.350030E-01 -1.005839E-02  5.000000E-01  1.363664E-01 -1.012044E-02  0.000000E+00  1.398700E-02  5.879401E-04 -9.608615E-19 -1.196174E-01  0.000000E+00
  1.476220E-01 -9.390153E-03  5.000000E-01  1.491128E-01 -9.445449E-03  0.000000E+00  1.316248E-02  8.445492E-04 -4.055287E-19 -1.131218E-01  0.000000E+00
  1.608730E-01 -8.379600E-03  5.000000E-01  1.624976E-01 -8.424690E-03  0.000000E+00  1.208862E-02  1.060147E-03 -3.108455E-18 -9.472905E-02  0.000000E+00
  1.747560E-01 -6.986287E-03  5.000000E-01  1.765208E-01 -7.017307E-03  0.000000E+00  1.086810E-02  1.204570E-03 -3.857607E-18 -6.319653E-02  0.000000E+00
  1.892730E-01 -5.206450E-03  5.000000E-01  1.911844E-01 -5.219496E-03  0.000000E+00  9.664642E-03  1.255082E-03 -2.696182E-18 -1.916092E-02  0.000000E+00
  2.044180E-01 -3.111390E-03  5.000000E-01  2.064824E-01 -3.103278E-03  0.000000E+00  8.675734E-03  1.208241E-03 -3.555520E-18  3.663548E-02  0.000000E+00
  2.201880E-01 -8.961000E-04  5.000000E-01  2.224116E-01 -8.656166E-04  0.000000E+00  8.027118E-03  1.102430E-03 -1.078094E-18  9.383191E-02  0.000000E+00
  2.365750E-01  1.291400E-03  5.000000E-01  2.389641E-01  1.343974E-03  0.000000E+00  7.676799E-03  9.896936E-04  1.741528E-18  1.367875E-01  0.000000E+00
  2.535710E-01  3.397200E-03  5.000000E-01  2.561317E-01  3.471040E-03  0.000000E+00  7.504459E-03  8.870697E-04  1.159632E-19  1.648634E-01  0.000000E+00
  2.711570E-01  5.376800E-03  5.000000E-01  2.738953E-01  5.470631E-03  0.000000E+00  7.437068E-03  7.895909E-04 -2.143255E-18  1.856503E-01  0.000000E+00
  2.893100E-01  7.189800E-03  5.000000E-01  2.922317E-01  7.301940E-03  0.000000E+00  7.453859E-03  6.932572E-04 -1.150823E-18  2.021959E-01  0.000000E+00
  3.080020E-01  8.800700E-03  5.000000E-01  3.111124E-01  8.929108E-03  0.000000E+00  7.542692E-03  5.985587E-04  6.064662E-19  2.137308E-01  0.000000E+00
  3.271950E-01  1.019360E-02  5.000000E-01  3.304992E-01  1.033607E-02  0.000000E+00  7.687693E-03  5.078744E-04  2.497787E-19  2.195683E-01  0.000000E+00
  3.468470E-01  1.136660E-02  5.000000E-01  3.503497E-01  1.152092E-02  0.000000E+00  7.885151E-03  4.218705E-04  1.459638E-18  2.207813E-01  0.000000E+00
  3.669110E-01  1.232010E-02  5.000000E-01  3.706163E-01  1.248405E-02  0.000000E+00  8.152708E-03  3.403122E-04  2.367184E-18  2.184080E-01  0.000000E+00
  3.873360E-01  1.305910E-02  5.000000E-01  3.912476E-01  1.323051E-02  0.000000E+00  8.518700E-03  2.623756E-04  2.346933E-19  2.122086E-01  0.000000E+00
  4.080670E-01  1.359080E-02  5.000000E-01  4.121879E-01  1.376758E-02  0.000000E+00  9.003592E-03  1.842691E-04 -2.519805E-19  2.016397E-01  0.000000E+00
  4.290470E-01  1.391920E-02  5.000000E-01  4.333798E-01  1.409930E-02  0.000000E+00  9.600771E-03  1.042585E-04  6.265648E-19  1.871640E-01  0.000000E+00
  4.502140E-01  1.405468E-02  5.000000E-01  4.547606E-01  1.423615E-02  0.000000E+00  1.023540E-02  4.981183E-05  1.672798E-18  1.667353E-01  0.000000E+00
  4.715070E-01  1.412283E-02  5.000000E-01  4.762686E-01  1.430499E-02  0.000000E+00  1.072945E-02  8.001215E-05  6.878214E-20  1.373261E-01  0.000000E+00
  4.928620E-01  1.436722E-02  5.000000E-01  4.978393E-01  1.455184E-02  0.000000E+00  1.085675E-02  2.294515E-04  2.687049E-19  1.056266E-01  0.000000E+00
  5.142140E-01  1.503052E-02  5.000000E-01  5.194069E-01  1.522184E-02  0.000000E+00  1.044545E-02  4.783162E-04  2.131172E-18  8.416025E-02  0.000000E+00
  5.355000E-01  1.634061E-02  5.000000E-01  5.409078E-01  1.654516E-02  0.000000E+00  9.432840E-03  7.592933E-04  1.934367E-18  7.936671E-02  0.000000E+00
  5.566560E-01  1.850355E-02  5.000000E-01  5.622775E-01  1.872995E-02  0.000000E+00  7.921606E-03  9.523094E-04  3.060174E-18  9.838435E-02  0.000000E+00
  4.727610E-01  6.529870E-02  5.000000E-01  4.775353E-01  6.599766E-02  0.000000E+00  9.409469E-03 -9.208869E-04  4.222330E-19 -3.619516E-01  0.000000E+00
  4.515970E-01  6.737451E-02  5.000000E-01  4.561575E-01  6.809444E-02  0.000000E+00  1.035636E-02 -9.836932E-04  3.763831E-19 -4.184351E-01  0.000000E+00
  4.305020E-01  6.932210E-02  5.000000E-01  4.348495E-01  7.006170E-02  0.000000E+00  1.138270E-02 -9.959935E-04  6.528019E-19 -4.696394E-01  0.000000E+00
  4.095340E-01  7.106460E-02  5.000000E-01  4.136698E-01  7.182179E-02  0.000000E+00  1.237511E-02 -9.658128E-04 -1.829914E-18 -5.168959E-01  0.000000E+00
  3.887520E-01  7.258820E-02  5.000000E-01  3.926779E-01  7.336078E-02  0.000000E+00  1.328152E-02 -9.026141E-04 -2.807633E-18 -5.622160E-01  0.000000E+00
  3.682080E-01  7.388110E-02  5.000000E-01  3.719264E-01  7.466674E-02  0.000000E+00  1.410296E-02 -8.061486E-04  4.355031E-19 -6.056135E-01  0.000000E+00
  3.479570E-01  7.492790E-02  5.000000E-01  3.514709E-01  7.572411E-02  0.000000E+00  1.486206E-02 -6.745655E-04  2.058678E-18 -6.470443E-01  0.000000E+00
  3.280470E-01  7.571200E-02  5.000000E-01  3.313598E-01  7.651612E-02  0.000000E+00  1.558422E-02 -5.080730E-04  2.617921E-18 -6.863196E-01  0.000000E+00
  3.085240E-01  7.622200E-02  5.000000E-01  3.116397E-01  7.703128E-02  0.000000E+00  1.628618E-02 -3.081789E-04  3.789079E-19 -7.232604E-01  0.000000E+00
  2.894320E-01  7.645200E-02  5.000000E-01  2.923549E-01  7.726360E-02  0.000000E+00  1.697487E-02 -7.491780E-05 -1.947143E-18 -7.581080E-01  0.000000E+00
  2.708110E-01  7.639800E-02  5.000000E-01  2.735458E-01  7.720905E-02  0.000000E+00  1.765782E-02  1.931115E-04 -8.366777E-19 -7.929520E-01  0.000000E+00
  2.526960E-01  7.605800E-02  5.000000E-01  2.552479E-01  7.686562E-02  0.000000E+00  1.836504E-02  5.005914E-04 -2.217310E-18 -8.315665E-01  0.000000E+00
  2.351200E-01  7.543300E-02  5.000000E-01  2.374944E-01  7.623431E-02  0.000000E+00  1.914648E-02  8.729097E-04 -1.917602E-18 -8.719412E-01  0.000000E+00
  2.181120E-01  7.449620E-02  5.000000E-01  2.203146E-01  7.528805E-02  0.000000E+00  1.999987E-02  1.350606E-03 -2.019839E-18 -9.031570E-01  0.000000E+00
  2.017010E-01  7.319489E-02  5.000000E-01  2.037379E-01  7.397359E-02  0.000000E+00  2.082501E-02  1.920466E-03 -3.816725E-18 -9.221373E-01  0.000000E+00
  1.859190E-01  7.154157E-02  5.000000E-01  1.877965E-01  7.230358E-02  0.000000E+00  2.153731E-02  2.530742E-03 -1.936762E-18 -9.364916E-01  0.000000E+00
  1.707920E-01  6.957566E-02  5.000000E-01  1.725168E-01  7.031782E-02  0.000000E+00  2.215430E-02  3.183914E-03 -3.289051E-18 -9.477612E-01  0.000000E+00
  1.563470E-01  6.730632E-02  5.000000E-01  1.579259E-01  6.802556E-02  0.000000E+00  2.271659E-02  3.919307E-03 -4.703112E-18 -9.509668E-01  0.000000E+00
  1.426070E-01  6.472928E-02  5.000000E-01  1.440471E-01  6.542249E-02  0.000000E+00  2.321814E-02  4.751681E-03 -3.537325E-18 -9.412191E-01  0.000000E+00
  1.295900E-01  6.184774E-02  5.000000E-01  1.308987E-01  6.251186E-02  0.000000E+00  2.361120E-02  5.659268E-03 -2.840491E-18 -9.153063E-01  0.000000E+00
  1.173060E-01  5.868214E-02  5.000000E-01  1.184906E-01  5.931428E-02  0.000000E+00  2.383491E-02  6.599359E-03  1.267476E-18 -8.716208E-01  0.000000E+00
  1.057600E-01  5.526589E-02  5.000000E-01  1.068280E-01  5.586354E-02  0.000000E+00  2.384159E-02  7.522974E-03  3.648912E-18 -8.100963E-01  0.000000E+00
  9.495290E-02  5.164297E-02  5.000000E-01  9.591180E-02  5.220403E-02  0.000000E+00  2.361537E-02  8.380756E-03  5.289173E-18 -7.328831E-01  0.000000E+00
  8.487680E-02  4.786659E-02  5.000000E-01  8.573395E-02  4.838951E-02  0.000000E+00  2.317681E-02  9.135854E-03  1.207049E-17 -6.424585E-01  0.000000E+00
  8.487680E-02  4.786659E-02  5.000000E-01  8.573395E-02  4.838951E-02  0.000000E+00  2.317681E-02  9.135854E-03  1.207049E-17 -6.424585E-01  0.000000E+00
  7.552090E-02  4.399396E-02  5.000000E-01  7.628356E-02  4.447778E-02  0.000000E+00  2.255470E-02  9.762490E-03  1.431261E-17 -5.396514E-01  0.000000E+00
  6.687020E-02  4.008218E-02  5.000000E-01  6.754550E-02  4.052649E-02  0.000000E+00  2.176337E-02  1.021824E-02  1.083959E-17 -4.272768E-01  0.000000E+00
  5.889940E-02  3.619684E-02  5.000000E-01  5.949421E-02  3.660191E-02  0.000000E+00  2.083656E-02  1.045938E-02  7.652030E-18 -3.128784E-01  0.000000E+00
  5.157140E-02  3.240684E-02  5.000000E-01  5.209220E-02  3.277364E-02  0.000000E+00  1.986945E-02  1.050629E-02  4.521347E-18 -2.050097E-01  0.000000E+00
  4.484650E-02  2.876918E-02  5.000000E-01  4.529939E-02  2.909925E-02  0.000000E+00  1.900270E-02  1.047269E-02  2.331138E-18 -1.079016E-01  0.000000E+00
  3.869820E-02  2.531560E-02  5.000000E-01  3.908900E-02  2.561078E-02  0.000000E+00  1.836545E-02  1.051486E-02 -2.862028E-18 -2.055671E-02  0.000000E+00
  3.311550E-02  2.205668E-02  5.000000E-01  3.344992E-02  2.231896E-02  0.000000E+00  1.801368E-02  1.074204E-02 -1.928410E-17  6.171357E-02  0.000000E+00
  2.809130E-02  1.899816E-02  5.000000E-01  2.837499E-02  1.922955E-02  0.000000E+00  1.780458E-02  1.111827E-02 -4.404618E-17  1.533890E-01  0.000000E+00
  2.362330E-02  1.614169E-02  5.000000E-01  2.386187E-02  1.634424E-02  0.000000E+00  1.735825E-02  1.130918E-02 -9.305825E-17  2.639663E-01  0.000000E+00
  1.966610E-02  1.351346E-02  5.000000E-01  1.986470E-02  1.368946E-02  0.000000E+00  1.648057E-02  1.086111E-02 -1.653191E-16  3.679555E-01  0.000000E+00
  1.609460E-02  1.117629E-02  5.000000E-01  1.625714E-02  1.132869E-02  0.000000E+00  1.550538E-02  9.880234E-03 -1.194271E-16  4.400693E-01  0.000000E+00
  1.282740E-02  9.152558E-03  5.000000E-01  1.295694E-02  9.284519E-03  0.000000E+00  1.500173E-02  9.037309E-03  4.673234E-16  4.844939E-01  0.000000E+00
  9.860990E-03  7.417212E-03  5.000000E-01  9.960574E-03  7.531649E-03  0.000000E+00  1.535191E-02  8.917556E-03  2.290431E-15  5.188913E-01  0.000000E+00
  7.251350E-03  5.913107E-03  5.000000E-01  7.324580E-03  6.012355E-03  0.000000E+00  1.661022E-02  9.732492E-03  5.427770E-15  5.567076E-01  0.000000E+00
  5.038810E-03  4.598127E-03  5.000000E-01  5.089696E-03  4.684094E-03  0.000000E+00  1.862787E-02  1.151247E-02  6.682306E-15  5.999656E-01  0.000000E+00
  3.239710E-03  3.449400E-03  5.000000E-01  3.272428E-03  3.523767E-03  0.000000E+00  2.093741E-02  1.431810E-02 -4.517330E-15  6.555008E-01  0.000000E+00
  1.861880E-03  2.452862E-03  5.000000E-01  1.880684E-03  2.517166E-03  0.000000E+00  2.196525E-02  1.768504E-02 -4.768994E-14  7.404864E-01  0.000000E+00
  9.013910E-04  1.603909E-03  5.000000E-01  9.104950E-04  1.659639E-03  0.000000E+00  1.834135E-02  1.869722E-02 -1.420627E-13  8.730958E-01  0.000000E+00
  3.295630E-04  9.098722E-04  5.000000E-01  3.328923E-04  9.585935E-04  0.000000E+00  7.911263E-03  9.666909E-03 -2.823108E-13  1.020661E+00  0.000000E+00
  7.194000E-05  3.900983E-04  5.000000E-01  7.266762E-05  4.335706E-04  0.000000E+00 -2.657766E-03 -1.527875E-02 -4.152700E-13  1.046888E+00  0.000000E+00
  4.516100E-06  6.914705E-05  5.000000E-01  4.562831E-06  1.093781E-04  0.000000E+00 -4.778890E-03 -4.024655E-02 -4.692685E-13  8.929079E-01  0.000000E+00
 -1.112850E-09 -3.913754E-05  5.000000E-01  0.000000E+00  0.000000E+00  0.000000E+00 -1.302735E-03 -4.065769E-02 -4.567554E-13  7.842174E-01  0.000000E+00