 Title = "ADflow Slice Data"
Variables =  "CoordinateX"  "CoordinateY"  "CoordinateZ"  "XoC"  "YoC"  "ZoC" "VelocityX" "VelocityY" "VelocityZ" "CoefPressure" "Mach" 
Zone T= "Slice_0001 None Absolute Regular z = 0.50000000"
 Nodes =          192  Elements=          184  ZONETYPE=FELINESEG
 DATAPACKING=POINT
  5.566560E-01  3.553414E-02  5.000000E-01  5.622777E-01  3.585942E-02  0.000000E+00  8.367971E-03 -8.901512E-04  1.369552E-18  3.553972E-01  0.000000E+00
  5.776220E-01  3.308785E-02  5.000000E-01  5.834554E-01  3.338842E-02  0.000000E+00  9.040070E-03 -1.113207E-03 -1.184300E-18  3.268424E-01  0.000000E+00
  5.983370E-01  3.040913E-02  5.000000E-01  6.043796E-01  3.068266E-02  0.000000E+00  9.688424E-03 -1.271766E-03 -2.782609E-18  2.875857E-01  0.000000E+00
  6.187480E-01  2.769409E-02  5.000000E-01  6.249968E-01  2.794019E-02  0.000000E+00  1.019791E-02 -1.332607E-03 -1.775310E-19  2.463589E-01  0.000000E+00
  6.388030E-01  2.512003E-02  5.000000E-01  6.452543E-01  2.534014E-02  0.000000E+00  1.048801E-02 -1.280167E-03  1.796754E-18  2.085955E-01  0.000000E+00
  6.584530E-01  2.284104E-02  5.000000E-01  6.651028E-01  2.303814E-02  0.000000E+00  1.051661E-02 -1.127713E-03  7.890968E-19  1.767380E-01  0.000000E+00
  6.776550E-01  2.095381E-02  5.000000E-01  6.844987E-01  2.113184E-02  0.000000E+00  1.032755E-02 -9.473550E-04 -4.585653E-19  1.582087E-01  0.000000E+00
  6.963720E-01  1.936873E-02  5.000000E-01  7.034047E-01  1.953075E-02  0.000000E+00  1.006203E-02 -8.197628E-04  1.228491E-18  1.561686E-01  0.000000E+00
  7.145680E-01  1.794614E-02  5.000000E-01  7.217845E-01  1.809380E-02  0.000000E+00  9.864967E-03 -7.683284E-04  1.818103E-18  1.610900E-01  0.000000E+00
  7.322140E-01  1.657437E-02  5.000000E-01  7.396087E-01  1.670818E-02  0.000000E+00  9.815506E-03 -7.827589E-04 -1.381979E-18  1.637998E-01  0.000000E+00
  7.492860E-01  1.517721E-02  5.000000E-01  7.568531E-01  1.529690E-02  0.000000E+00  9.937102E-03 -8.490912E-04 -3.501846E-18  1.609330E-01  0.000000E+00
  7.657630E-01  1.371118E-02  5.000000E-01  7.734965E-01  1.381606E-02  0.000000E+00  1.022388E-02 -9.564162E-04 -2.611025E-18  1.524986E-01  0.000000E+00
  7.816300E-01  1.215796E-02  5.000000E-01  7.895237E-01  1.224716E-02  0.000000E+00  1.064158E-02 -1.081277E-03  1.205530E-18  1.382902E-01  0.000000E+00
  7.968740E-01  1.055248E-02  5.000000E-01  8.049217E-01  1.062547E-02  0.000000E+00  1.110222E-02 -1.170544E-03  3.888978E-18  1.152390E-01  0.000000E+00
  8.114890E-01  9.008006E-03  5.000000E-01  8.196843E-01  9.065397E-03  0.000000E+00  1.149320E-02 -1.186600E-03  1.693555E-18  8.625753E-02  0.000000E+00
  8.254710E-01  7.599400E-03  5.000000E-01  8.338075E-01  7.642566E-03  0.000000E+00  1.175550E-02 -1.138958E-03 -9.522261E-19  6.007071E-02  0.000000E+00
  8.388180E-01  6.358351E-03  5.000000E-01  8.472893E-01  6.388983E-03  0.000000E+00  1.189431E-02 -1.052368E-03 -2.256313E-18  4.012569E-02  0.000000E+00
  8.515320E-01  5.290550E-03  5.000000E-01  8.601317E-01  5.310398E-03  0.000000E+00  1.193580E-02 -9.469677E-04 -1.500799E-18  2.552405E-02  0.000000E+00
  8.636180E-01  4.387706E-03  5.000000E-01  8.723397E-01  4.398437E-03  0.000000E+00  1.190222E-02 -8.353489E-04  3.917428E-20  1.493166E-02  0.000000E+00
  8.750810E-01  3.635235E-03  5.000000E-01  8.839185E-01  3.638366E-03  0.000000E+00  1.181123E-02 -7.251181E-04 -5.439370E-19  7.656095E-03  0.000000E+00
  8.859290E-01  3.015897E-03  5.000000E-01  8.948761E-01  3.012774E-03  0.000000E+00  1.167925E-02 -6.210593E-04 -1.495412E-18  3.260586E-03  0.000000E+00
  8.961710E-01  2.511926E-03  5.000000E-01  9.052215E-01  2.503713E-03  0.000000E+00  1.152066E-02 -5.257305E-04 -5.207157E-19  1.208980E-03  0.000000E+00
  9.058170E-01  2.106718E-03  5.000000E-01  9.149649E-01  2.094412E-03  0.000000E+00  1.134585E-02 -4.399567E-04  9.790113E-19  9.632821E-04  0.000000E+00
  9.148770E-01  1.785129E-03  5.000000E-01  9.241164E-01  1.769576E-03  0.000000E+00  1.116120E-02 -3.634781E-04  1.777427E-18  2.087831E-03  0.000000E+00
  9.148770E-01  1.785129E-03  5.000000E-01  9.241164E-01  1.769576E-03  0.000000E+00  1.116120E-02 -3.634781E-04  1.777427E-18  2.087831E-03  0.000000E+00
  9.233640E-01  1.534028E-03  5.000000E-01  9.326891E-01  1.515939E-03  0.000000E+00  1.097055E-02 -2.957590E-04  8.017202E-19  4.298382E-03  0.000000E+00
  9.312880E-01  1.341608E-03  5.000000E-01  9.406931E-01  1.321575E-03  0.000000E+00  1.077662E-02 -2.361891E-04  3.100212E-19  7.386605E-03  0.000000E+00
  9.386620E-01  1.197776E-03  5.000000E-01  9.481416E-01  1.176291E-03  0.000000E+00  1.058125E-02 -1.840318E-04  3.450595E-18  1.115065E-02  0.000000E+00
  9.454960E-01  1.093625E-03  5.000000E-01  9.550446E-01  1.071088E-03  0.000000E+00  1.038514E-02 -1.384864E-04  4.753887E-18  1.540306E-02  0.000000E+00
  9.518040E-01  1.021765E-03  5.000000E-01  9.614163E-01  9.985020E-04  0.000000E+00  1.018863E-02 -9.890559E-05  4.379847E-18  2.003114E-02  0.000000E+00
  9.575950E-01  9.755126E-04  5.000000E-01  9.672658E-01  9.517830E-04  0.000000E+00  9.992815E-03 -6.473526E-05  3.440407E-18  2.494515E-02  0.000000E+00
  9.628810E-01  9.494119E-04  5.000000E-01  9.726052E-01  9.254187E-04  0.000000E+00  9.800051E-03 -3.539879E-05  1.341087E-18  3.003195E-02  0.000000E+00
  9.676710E-01  9.385975E-04  5.000000E-01  9.774436E-01  9.144950E-04  0.000000E+00  9.614272E-03 -1.041547E-05  9.712678E-20  3.519865E-02  0.000000E+00
  9.719750E-01  9.390919E-04  5.000000E-01  9.817910E-01  9.149945E-04  0.000000E+00  9.439938E-03  1.074540E-05 -1.672066E-18  4.035743E-02  0.000000E+00
  9.758020E-01  9.474827E-04  5.000000E-01  9.856567E-01  9.234700E-04  0.000000E+00  9.277185E-03  2.855358E-05 -4.064206E-18  4.546981E-02  0.000000E+00
  9.791590E-01  9.608121E-04  5.000000E-01  9.890476E-01  9.369340E-04  0.000000E+00  9.107911E-03  4.320983E-05 -1.000107E-18  5.032016E-02  0.000000E+00
  9.820540E-01  9.767724E-04  5.000000E-01  9.919718E-01  9.530555E-04  0.000000E+00  8.885123E-03  5.366361E-05  1.167089E-17  5.497455E-02  0.000000E+00
  9.844930E-01  9.933805E-04  5.000000E-01  9.944355E-01  9.698313E-04  0.000000E+00  8.539124E-03  6.140495E-05  3.610308E-17  6.019695E-02  0.000000E+00
  9.864820E-01  1.009102E-03  5.000000E-01  9.964446E-01  9.857118E-04  0.000000E+00  7.884189E-03  7.515015E-05  5.389184E-17  6.316568E-02  0.000000E+00
  9.880240E-01  1.022543E-03  5.000000E-01  9.980021E-01  9.992888E-04  0.000000E+00  6.530488E-03  5.764516E-05 -4.749100E-17  5.600890E-02  0.000000E+00
  9.891220E-01  1.032672E-03  5.000000E-01  9.991112E-01  1.009520E-03  0.000000E+00  5.930033E-03 -5.839839E-05 -5.329767E-16  6.996245E-02  0.000000E+00
  9.897810E-01  1.039152E-03  5.000000E-01  9.997769E-01  1.016065E-03  0.000000E+00  1.286470E-02  1.119747E-03 -1.567665E-15  1.647196E-01  0.000000E+00
  9.900000E-01  1.041302E-03  5.000000E-01  9.999981E-01  1.018237E-03  0.000000E+00  1.133392E-02  5.120029E-04 -2.016383E-15 -3.133837E-02  0.000000E+00
  9.900000E-01  1.227523E-03  5.000000E-01  9.999981E-01  1.206338E-03  0.000000E+00  1.078989E-03 -1.084232E-02 -1.280668E-15 -1.573666E-01  0.000000E+00
  9.900000E-01  1.413733E-03  5.000000E-01  9.999981E-01  1.394429E-03  0.000000E+00 -6.578980E-04 -1.161419E-02 -3.758468E-16  4.087920E-03  0.000000E+00
  9.900000E-01  1.599953E-03  5.000000E-01  9.999981E-01  1.582530E-03  0.000000E+00 -4.864080E-04  5.043017E-03  3.769145E-16  7.597039E-04  0.000000E+00
  9.900000E-01  1.786174E-03  5.000000E-01  9.999981E-01  1.770631E-03  0.000000E+00  8.326892E-04  4.892991E-03  1.557002E-15 -1.263343E-01  0.000000E+00
  9.900000E-01  1.972394E-03  5.000000E-01  9.999981E-01  1.958732E-03  0.000000E+00  8.488033E-03 -3.192165E-03  2.436990E-15 -2.463549E-02  0.000000E+00
  9.900000E-01  1.972394E-03  5.000000E-01  9.999981E-01  1.958732E-03  0.000000E+00  8.488033E-03 -3.192165E-03  2.436990E-15 -2.463549E-02  0.000000E+00
  9.897920E-01  1.989482E-03  5.000000E-01  9.997880E-01  1.975992E-03  0.000000E+00  9.587108E-03 -1.706802E-03  1.747904E-15  1.352120E-01  0.000000E+00
  9.891660E-01  2.040629E-03  5.000000E-01  9.991557E-01  2.027656E-03  0.000000E+00  4.063840E-03 -2.485190E-04  5.689708E-16  6.539569E-02  0.000000E+00
  9.881230E-01  2.126388E-03  5.000000E-01  9.981021E-01  2.114281E-03  0.000000E+00  4.246558E-03 -3.401267E-04  5.220834E-17  4.976459E-02  0.000000E+00
  9.866580E-01  2.246868E-03  5.000000E-01  9.966223E-01  2.235978E-03  0.000000E+00  5.137305E-03 -4.324359E-04 -5.368105E-17  5.958846E-02  0.000000E+00
  9.847700E-01  2.402953E-03  5.000000E-01  9.947153E-01  2.393640E-03  0.000000E+00  5.364156E-03 -4.452200E-04 -3.680932E-17  6.283777E-02  0.000000E+00
  9.824550E-01  2.595495E-03  5.000000E-01  9.923769E-01  2.588126E-03  0.000000E+00  5.318319E-03 -4.427912E-04 -1.155070E-17  6.261836E-02  0.000000E+00
  9.797070E-01  2.825415E-03  5.000000E-01  9.896011E-01  2.820367E-03  0.000000E+00  5.227363E-03 -4.393137E-04 -4.486099E-19  6.252527E-02  0.000000E+00
  9.765220E-01  3.094250E-03  5.000000E-01  9.863840E-01  3.091917E-03  0.000000E+00  5.139908E-03 -4.360662E-04  4.147879E-19  6.232724E-02  0.000000E+00
  9.728930E-01  3.403569E-03  5.000000E-01  9.827183E-01  3.404361E-03  0.000000E+00  5.070430E-03 -4.347052E-04 -5.012691E-19  6.178133E-02  0.000000E+00
  9.688130E-01  3.755353E-03  5.000000E-01  9.785971E-01  3.759697E-03  0.000000E+00  5.020407E-03 -4.357471E-04 -1.813371E-18  6.097153E-02  0.000000E+00
  9.642740E-01  4.151968E-03  5.000000E-01  9.740123E-01  4.160318E-03  0.000000E+00  4.982390E-03 -4.387241E-04 -2.011270E-18  6.002879E-02  0.000000E+00
  9.592670E-01  4.596210E-03  5.000000E-01  9.689547E-01  4.609046E-03  0.000000E+00  4.947827E-03 -4.430956E-04 -2.529591E-18  5.891976E-02  0.000000E+00
  9.537850E-01  5.091701E-03  5.000000E-01  9.634173E-01  5.109541E-03  0.000000E+00  4.911100E-03 -4.483903E-04 -2.735175E-18  5.767326E-02  0.000000E+00
  9.478160E-01  5.642181E-03  5.000000E-01  9.573881E-01  5.665580E-03  0.000000E+00  4.868700E-03 -4.544361E-04 -5.746270E-19  5.628568E-02  0.000000E+00
  9.413520E-01  6.252743E-03  5.000000E-01  9.508588E-01  6.282308E-03  0.000000E+00  4.818969E-03 -4.612350E-04  1.389460E-19  5.470875E-02  0.000000E+00
  9.343800E-01  6.928891E-03  5.000000E-01  9.438164E-01  6.965285E-03  0.000000E+00  4.761275E-03 -4.688544E-04 -7.952213E-19  5.291848E-02  0.000000E+00
  9.268920E-01  7.677519E-03  5.000000E-01  9.362527E-01  7.721473E-03  0.000000E+00  4.695376E-03 -4.774658E-04 -1.101467E-18  5.084052E-02  0.000000E+00
  9.188750E-01  8.506657E-03  5.000000E-01  9.281548E-01  8.558985E-03  0.000000E+00  4.621505E-03 -4.871945E-04 -4.241032E-19  4.839710E-02  0.000000E+00
  9.103190E-01  9.425916E-03  5.000000E-01  9.195124E-01  9.487527E-03  0.000000E+00  4.540472E-03 -4.982960E-04 -9.106825E-19  4.545380E-02  0.000000E+00
  9.012130E-01  1.044661E-02  5.000000E-01  9.103144E-01  1.051853E-02  0.000000E+00  4.453815E-03 -5.110319E-04 -1.740135E-18  4.189029E-02  0.000000E+00
  8.915460E-01  1.158190E-02  5.000000E-01  9.005498E-01  1.166529E-02  0.000000E+00  4.363998E-03 -5.258260E-04 -1.486042E-18  3.751437E-02  0.000000E+00
  8.813080E-01  1.284736E-02  5.000000E-01  8.902084E-01  1.294352E-02  0.000000E+00  4.275419E-03 -5.433410E-04 -4.740743E-19  3.206275E-02  0.000000E+00
  8.704900E-01  1.426053E-02  5.000000E-01  8.792811E-01  1.437097E-02  0.000000E+00  4.195234E-03 -5.645313E-04  4.457013E-19  2.520421E-02  0.000000E+00
  8.704900E-01  1.426053E-02  5.000000E-01  8.792811E-01  1.437097E-02  0.000000E+00  4.195234E-03 -5.645313E-04  4.457013E-19  2.520421E-02  0.000000E+00
  8.590830E-01  1.584114E-02  5.000000E-01  8.677589E-01  1.596754E-02  0.000000E+00  4.133597E-03 -5.909353E-04  1.071903E-19  1.656133E-02  0.000000E+00
  8.470810E-01  1.761050E-02  5.000000E-01  8.556357E-01  1.775477E-02  0.000000E+00  4.103539E-03 -6.244252E-04  2.486096E-18  5.680398E-03  0.000000E+00
  8.344780E-01  1.958895E-02  5.000000E-01  8.429055E-01  1.975320E-02  0.000000E+00  4.122063E-03 -6.673038E-04  5.792446E-18 -8.206896E-03  0.000000E+00
  8.212700E-01  2.179112E-02  5.000000E-01  8.295641E-01  2.197761E-02  0.000000E+00  4.215259E-03 -7.224471E-04  5.428009E-18 -2.672038E-02  0.000000E+00
  8.074550E-01  2.421737E-02  5.000000E-01  8.156095E-01  2.442836E-02  0.000000E+00  4.420075E-03 -7.909994E-04  3.238156E-18 -5.146976E-02  0.000000E+00
  7.930350E-01  2.683941E-02  5.000000E-01  8.010439E-01  2.707688E-02  0.000000E+00  4.758236E-03 -8.661000E-04 -1.189094E-18 -8.010044E-02  0.000000E+00
  7.780130E-01  2.958054E-02  5.000000E-01  7.858702E-01  2.984570E-02  0.000000E+00  5.191739E-03 -9.313921E-04 -2.253132E-18 -1.063285E-01  0.000000E+00
  7.623950E-01  3.234120E-02  5.000000E-01  7.700945E-01  3.263423E-02  0.000000E+00  5.633615E-03 -9.782689E-04  4.600389E-19 -1.288368E-01  0.000000E+00
  7.461930E-01  3.510597E-02  5.000000E-01  7.537289E-01  3.542693E-02  0.000000E+00  6.012276E-03 -1.010852E-03  1.625092E-18 -1.495483E-01  0.000000E+00
  7.294180E-01  3.788696E-02  5.000000E-01  7.367844E-01  3.823600E-02  0.000000E+00  6.291527E-03 -1.033419E-03  3.833458E-19 -1.678805E-01  0.000000E+00
  7.120900E-01  4.070930E-02  5.000000E-01  7.192814E-01  4.108685E-02  0.000000E+00  6.457525E-03 -1.050438E-03 -1.002556E-18 -1.838836E-01  0.000000E+00
  6.942280E-01  4.361348E-02  5.000000E-01  7.012391E-01  4.402036E-02  0.000000E+00  6.525458E-03 -1.070740E-03 -6.959673E-19 -1.998799E-01  0.000000E+00
  6.758590E-01  4.665473E-02  5.000000E-01  6.826845E-01  4.709232E-02  0.000000E+00  6.554258E-03 -1.107256E-03 -2.298878E-18 -2.213002E-01  0.000000E+00
  6.570120E-01  4.989717E-02  5.000000E-01  6.636472E-01  5.036751E-02  0.000000E+00  6.647242E-03 -1.169640E-03  2.695800E-19 -2.533711E-01  0.000000E+00
  6.377220E-01  5.336390E-02  5.000000E-01  6.441624E-01  5.386925E-02  0.000000E+00  6.910339E-03 -1.254643E-03  2.004297E-18 -2.952802E-01  0.000000E+00
  6.180260E-01  5.697542E-02  5.000000E-01  6.242675E-01  5.751724E-02  0.000000E+00  7.399585E-03 -1.352910E-03  2.021160E-19 -3.446940E-01  0.000000E+00
  5.979670E-01  6.063042E-02  5.000000E-01  6.040059E-01  6.120915E-02  0.000000E+00  8.119527E-03 -1.454736E-03  1.952031E-18 -4.009644E-01  0.000000E+00
  5.775910E-01  6.422236E-02  5.000000E-01  5.834241E-01  6.483736E-02  0.000000E+00  9.032117E-03 -1.540835E-03  1.787550E-18 -4.596560E-01  0.000000E+00
  5.569470E-01  6.764157E-02  5.000000E-01  5.625716E-01  6.829110E-02  0.000000E+00  1.003967E-02 -1.582795E-03 -5.139903E-20 -5.123552E-01  0.000000E+00
  5.360860E-01  7.078356E-02  5.000000E-01  5.415000E-01  7.146482E-02  0.000000E+00  1.099898E-02 -1.569941E-03  6.209006E-19 -5.554305E-01  0.000000E+00
  5.150640E-01  7.363114E-02  5.000000E-01  5.202657E-01  7.434117E-02  0.000000E+00  1.179623E-02 -1.520212E-03 -1.535973E-19 -5.918344E-01  0.000000E+00
  4.939370E-01  7.622335E-02  5.000000E-01  4.989253E-01  7.695955E-02  0.000000E+00  1.240007E-02 -1.454822E-03 -2.756895E-18 -6.240997E-01  0.000000E+00
  4.727610E-01  7.860036E-02  5.000000E-01  4.775354E-01  7.936057E-02  0.000000E+00  1.285154E-02 -1.389226E-03 -2.415771E-18 -6.564119E-01  0.000000E+00
  5.770140E-06 -7.894760E-05  5.000000E-01  5.829537E-06 -1.133263E-04  0.000000E+00 -3.829044E-03  2.588971E-02 -1.442115E-12  8.917840E-01  0.000000E+00
  9.104010E-05 -4.114025E-04  5.000000E-01  9.196064E-05 -4.491387E-04  0.000000E+00  2.664269E-03  3.112488E-03 -1.281706E-12  1.056553E+00  0.000000E+00
  4.796980E-04 -9.293813E-04  5.000000E-01  4.845436E-04 -9.723486E-04  0.000000E+00  1.945287E-02 -1.523819E-02 -8.776103E-13  9.435564E-01  0.000000E+00
  1.456590E-03 -1.536516E-03  5.000000E-01  1.471301E-03 -1.585615E-03  0.000000E+00  3.102303E-02 -1.516133E-02 -4.340772E-13  6.481961E-01  0.000000E+00
  3.096410E-03 -2.135105E-03  5.000000E-01  3.127682E-03 -2.190249E-03  0.000000E+00  3.139698E-02 -9.847433E-03 -1.363271E-13  4.598818E-01  0.000000E+00
  5.335170E-03 -2.702542E-03  5.000000E-01  5.389051E-03 -2.763416E-03  0.000000E+00  2.808483E-02 -6.270601E-03 -6.008354E-15  3.727803E-01  0.000000E+00
  8.129670E-03 -3.231646E-03  5.000000E-01  8.211773E-03 -3.297864E-03  0.000000E+00  2.498695E-02 -4.167421E-03  2.333438E-14  3.077934E-01  0.000000E+00
  1.145600E-02 -3.702748E-03  5.000000E-01  1.157170E-02 -3.773724E-03  0.000000E+00  2.216399E-02 -2.594006E-03  1.651545E-14  2.423229E-01  0.000000E+00
  1.529970E-02 -4.046194E-03  5.000000E-01  1.545421E-02 -4.120639E-03  0.000000E+00  1.895435E-02 -1.162678E-03  6.216777E-15  1.768930E-01  0.000000E+00
  1.962420E-02 -4.164815E-03  5.000000E-01  1.982239E-02 -4.240457E-03  0.000000E+00  1.544626E-02 -1.272163E-04  9.326405E-16  1.401994E-01  0.000000E+00
  2.439810E-02 -4.076992E-03  5.000000E-01  2.464450E-02 -4.151748E-03  0.000000E+00  1.289291E-02  2.399685E-04 -4.752974E-16  1.663425E-01  0.000000E+00
  2.966100E-02 -3.974055E-03  5.000000E-01  2.996055E-02 -4.047771E-03  0.000000E+00  1.218291E-02  1.926577E-04 -4.186646E-16  2.101317E-01  0.000000E+00
  3.543640E-02 -3.917185E-03  5.000000E-01  3.579428E-02 -3.990327E-03  0.000000E+00  1.264982E-02  9.944087E-05 -1.581978E-16  2.111619E-01  0.000000E+00
  4.172970E-02 -3.882245E-03  5.000000E-01  4.215113E-02 -3.955033E-03  0.000000E+00  1.321735E-02  9.108833E-05 -2.048373E-17  1.824139E-01  0.000000E+00
  4.854440E-02 -3.824012E-03  5.000000E-01  4.903465E-02 -3.896213E-03  0.000000E+00  1.343076E-02  1.873548E-04  1.490512E-17  1.494282E-01  0.000000E+00
  5.588220E-02 -3.680410E-03  5.000000E-01  5.644656E-02 -3.751161E-03  0.000000E+00  1.332934E-02  3.435725E-04  1.179452E-17  1.237407E-01  0.000000E+00
  6.375220E-02 -3.426053E-03  5.000000E-01  6.439604E-02 -3.494235E-03  0.000000E+00  1.312516E-02  4.935981E-04  3.736899E-18  1.090840E-01  0.000000E+00
  7.217040E-02 -3.063539E-03  5.000000E-01  7.289926E-02 -3.128059E-03  0.000000E+00  1.299098E-02  6.137328E-04 -5.694989E-20  1.011222E-01  0.000000E+00
  8.115500E-02 -2.601970E-03  5.000000E-01  8.197459E-02 -2.661829E-03  0.000000E+00  1.296216E-02  7.216475E-04 -3.417496E-19  9.311985E-02  0.000000E+00
  9.072040E-02 -2.029617E-03  5.000000E-01  9.163659E-02 -2.083695E-03  0.000000E+00  1.296911E-02  8.428237E-04  5.997800E-19  8.188388E-02  0.000000E+00
  1.008780E-01 -1.317292E-03  5.000000E-01  1.018968E-01 -1.364177E-03  0.000000E+00  1.293013E-02  9.854249E-04  1.692960E-18  6.987801E-02  0.000000E+00
  1.116380E-01 -4.308984E-04  5.000000E-01  1.127654E-01 -4.688315E-04  0.000000E+00  1.279172E-02  1.146692E-03  3.476351E-19  6.020965E-02  0.000000E+00
  1.230100E-01  6.725092E-04  5.000000E-01  1.242523E-01  6.457195E-04  0.000000E+00  1.250926E-02  1.320112E-03 -1.124577E-19  5.438745E-02  0.000000E+00
  1.350030E-01  2.043067E-03  5.000000E-01  1.363664E-01  2.030119E-03  0.000000E+00  1.203582E-02  1.492648E-03  2.961535E-18  5.396028E-02  0.000000E+00
  1.350030E-01  2.043067E-03  5.000000E-01  1.363664E-01  2.030119E-03  0.000000E+00  1.203582E-02  1.492648E-03  2.961535E-18  5.396028E-02  0.000000E+00
  1.476220E-01  3.737018E-03  5.000000E-01  1.491128E-01  3.741177E-03  0.000000E+00  1.133549E-02  1.644326E-03  4.091742E-18  6.099158E-02  0.000000E+00
  1.608730E-01  5.813720E-03  5.000000E-01  1.624977E-01  5.838852E-03  0.000000E+00  1.040420E-02  1.750580E-03  2.313826E-18  7.767652E-02  0.000000E+00
  1.747560E-01  8.327216E-03  5.000000E-01  1.765209E-01  8.377732E-03  0.000000E+00  9.282984E-03  1.786399E-03  7.921077E-19  1.054229E-01  0.000000E+00
  1.892730E-01  1.130912E-02  5.000000E-01  1.911845E-01  1.138975E-02  0.000000E+00  8.058935E-03  1.732277E-03 -5.067539E-19  1.445211E-01  0.000000E+00
  2.044180E-01  1.473682E-02  5.000000E-01  2.064824E-01  1.485206E-02  0.000000E+00  6.858940E-03  1.588349E-03 -1.150542E-18  1.952406E-01  0.000000E+00
  2.201880E-01  1.848971E-02  5.000000E-01  2.224117E-01  1.864286E-02  0.000000E+00  5.795086E-03  1.389178E-03 -2.667900E-19  2.518493E-01  0.000000E+00
  2.365750E-01  2.244541E-02  5.000000E-01  2.389642E-01  2.263851E-02  0.000000E+00  4.906474E-03  1.179599E-03  2.380737E-18  3.044534E-01  0.000000E+00
  2.535710E-01  2.650746E-02  5.000000E-01  2.561318E-01  2.674158E-02  0.000000E+00  4.197774E-03  9.845995E-04  4.623620E-18  3.509030E-01  0.000000E+00
  2.711570E-01  3.054497E-02  5.000000E-01  2.738954E-01  3.081987E-02  0.000000E+00  3.699829E-03  8.170151E-04  1.943320E-18  3.935278E-01  0.000000E+00
  2.893100E-01  3.437985E-02  5.000000E-01  2.922318E-01  3.469348E-02  0.000000E+00  3.462764E-03  6.819546E-04 -1.763512E-18  4.317738E-01  0.000000E+00
  3.080020E-01  3.778505E-02  5.000000E-01  3.111125E-01  3.813306E-02  0.000000E+00  3.520201E-03  5.677766E-04 -2.232940E-18  4.631525E-01  0.000000E+00
  3.271950E-01  4.050725E-02  5.000000E-01  3.304994E-01  4.088276E-02  0.000000E+00  3.870486E-03  4.485704E-04 -6.717586E-19  4.858402E-01  0.000000E+00
  3.468470E-01  4.233254E-02  5.000000E-01  3.503498E-01  4.272648E-02  0.000000E+00  4.449488E-03  3.078199E-04  1.786828E-19  4.944973E-01  0.000000E+00
  3.669110E-01  4.330167E-02  5.000000E-01  3.706165E-01  4.370539E-02  0.000000E+00  5.129013E-03  1.514324E-04 -3.740540E-21  4.865349E-01  0.000000E+00
  3.873360E-01  4.356958E-02  5.000000E-01  3.912477E-01  4.397601E-02  0.000000E+00  5.780600E-03 -1.892753E-06  3.847408E-19  4.686740E-01  0.000000E+00
  4.080670E-01  4.331559E-02  5.000000E-01  4.121881E-01  4.371945E-02  0.000000E+00  6.319248E-03 -1.276864E-04  8.283742E-20  4.473310E-01  0.000000E+00
  4.290470E-01  4.273464E-02  5.000000E-01  4.333800E-01  4.313264E-02  0.000000E+00  6.693251E-03 -2.042764E-04 -1.033445E-18  4.241958E-01  0.000000E+00
  4.502140E-01  4.202912E-02  5.000000E-01  4.547607E-01  4.241999E-02  0.000000E+00  6.896943E-03 -2.411454E-04 -1.225802E-18  4.034475E-01  0.000000E+00
  4.715070E-01  4.125712E-02  5.000000E-01  4.762688E-01  4.164020E-02  0.000000E+00  7.005462E-03 -2.812756E-04 -1.692357E-18  3.920033E-01  0.000000E+00
  4.928620E-01  4.032163E-02  5.000000E-01  4.978394E-01  4.069526E-02  0.000000E+00  7.138174E-03 -3.571780E-04 -1.625103E-18  3.874885E-01  0.000000E+00
  5.142140E-01  3.911996E-02  5.000000E-01  5.194071E-01  3.948145E-02  0.000000E+00  7.385590E-03 -4.808651E-04 -1.491784E-20  3.818401E-01  0.000000E+00
  5.355000E-01  3.755342E-02  5.000000E-01  5.409081E-01  3.789909E-02  0.000000E+00  7.794245E-03 -6.618588E-04  1.256266E-18  3.718906E-01  0.000000E+00
  5.566560E-01  3.553414E-02  5.000000E-01  5.622777E-01  3.585942E-02  0.000000E+00  8.367971E-03 -8.901512E-04  1.369552E-18  3.553972E-01  0.000000E+00
  4.727610E-01  7.860036E-02  5.000000E-01  4.775354E-01  7.936057E-02  0.000000E+00  1.285154E-02 -1.389226E-03 -2.415771E-18 -6.564119E-01  0.000000E+00
  4.515970E-01  8.080110E-02  5.000000E-01  4.561577E-01  8.158353E-02  0.000000E+00  1.325700E-02 -1.336933E-03 -2.684268E-18 -6.972628E-01  0.000000E+00
  4.305020E-01  8.286059E-02  5.000000E-01  4.348497E-01  8.366382E-02  0.000000E+00  1.377349E-02 -1.290710E-03 -2.236795E-18 -7.514959E-01  0.000000E+00
  4.095340E-01  8.474624E-02  5.000000E-01  4.136699E-01  8.556851E-02  0.000000E+00  1.453608E-02 -1.214417E-03 -1.129919E-18 -8.156757E-01  0.000000E+00
  3.887520E-01  8.635712E-02  5.000000E-01  3.926780E-01  8.719566E-02  0.000000E+00  1.558786E-02 -1.071078E-03 -2.117019E-18 -8.852981E-01  0.000000E+00
  3.682080E-01  8.759870E-02  5.000000E-01  3.719266E-01  8.844979E-02  0.000000E+00  1.688327E-02 -8.312411E-04 -1.565696E-18 -9.546067E-01  0.000000E+00
  3.479570E-01  8.838682E-02  5.000000E-01  3.514710E-01  8.924586E-02  0.000000E+00  1.829683E-02 -4.659906E-04  5.846962E-19 -1.011286E+00  0.000000E+00
  3.280470E-01  8.865035E-02  5.000000E-01  3.313600E-01  8.951205E-02  0.000000E+00  1.961385E-02  2.318447E-05  1.533233E-18 -1.043140E+00  0.000000E+00
  3.085240E-01  8.836498E-02  5.000000E-01  3.116398E-01  8.922380E-02  0.000000E+00  2.059993E-02  5.605370E-04  1.405203E-18 -1.051820E+00  0.000000E+00
  2.894320E-01  8.761359E-02  5.000000E-01  2.923550E-01  8.846482E-02  0.000000E+00  2.115022E-02  1.051614E-03  3.541376E-19 -1.047742E+00  0.000000E+00
  2.708110E-01  8.649792E-02  5.000000E-01  2.735459E-01  8.733789E-02  0.000000E+00  2.133217E-02  1.458193E-03  1.121564E-18 -1.040290E+00  0.000000E+00
  2.526960E-01  8.510560E-02  5.000000E-01  2.552480E-01  8.593150E-02  0.000000E+00  2.131731E-02  1.789727E-03  7.403106E-19 -1.039449E+00  0.000000E+00
  2.351200E-01  8.350264E-02  5.000000E-01  2.374945E-01  8.431236E-02  0.000000E+00  2.131655E-02  2.097694E-03 -2.605283E-18 -1.049820E+00  0.000000E+00
  2.181120E-01  8.170670E-02  5.000000E-01  2.203147E-01  8.249828E-02  0.000000E+00  2.148703E-02  2.456873E-03 -3.696042E-18 -1.066836E+00  0.000000E+00
  2.017010E-01  7.968938E-02  5.000000E-01  2.037380E-01  8.046058E-02  0.000000E+00  2.186316E-02  2.909461E-03 -3.598183E-18 -1.085716E+00  0.000000E+00
  1.859190E-01  7.743191E-02  5.000000E-01  1.877966E-01  7.818032E-02  0.000000E+00  2.239953E-02  3.460082E-03 -1.597858E-18 -1.105385E+00  0.000000E+00
  1.707920E-01  7.492635E-02  5.000000E-01  1.725168E-01  7.564946E-02  0.000000E+00  2.303924E-02  4.117334E-03 -5.990091E-19 -1.122742E+00  0.000000E+00
  1.563470E-01  7.216167E-02  5.000000E-01  1.579260E-01  7.285685E-02  0.000000E+00  2.371709E-02  4.893128E-03 -2.328411E-18 -1.132002E+00  0.000000E+00
  1.426070E-01  6.912834E-02  5.000000E-01  1.440472E-01  6.979289E-02  0.000000E+00  2.434937E-02  5.778317E-03 -2.947528E-18 -1.127774E+00  0.000000E+00
  1.295900E-01  6.582969E-02  5.000000E-01  1.308987E-01  6.646093E-02  0.000000E+00  2.484792E-02  6.735891E-03 -4.599523E-18 -1.106950E+00  0.000000E+00
  1.173060E-01  6.228675E-02  5.000000E-01  1.184907E-01  6.288220E-02  0.000000E+00  2.514375E-02  7.715875E-03 -4.584463E-18 -1.068320E+00  0.000000E+00
  1.057600E-01  5.853287E-02  5.000000E-01  1.068281E-01  5.909042E-02  0.000000E+00  2.519879E-02  8.668925E-03 -2.057704E-18 -1.012110E+00  0.000000E+00
  9.495290E-02  5.461073E-02  5.000000E-01  9.591184E-02  5.512867E-02  0.000000E+00  2.500935E-02  9.549698E-03  2.016917E-18 -9.404551E-01  0.000000E+00
  8.487680E-02  5.057055E-02  5.000000E-01  8.573398E-02  5.104768E-02  0.000000E+00  2.460233E-02  1.032599E-02  6.403149E-18 -8.555777E-01  0.000000E+00
  8.487680E-02  5.057055E-02  5.000000E-01  8.573398E-02  5.104768E-02  0.000000E+00  2.460233E-02  1.032599E-02  6.403149E-18 -8.555777E-01  0.000000E+00
  7.552090E-02  4.646563E-02  5.000000E-01  7.628359E-02  4.690131E-02  0.000000E+00  2.400637E-02  1.097443E-02  9.051240E-18 -7.579839E-01  0.000000E+00
  6.687020E-02  4.234863E-02  5.000000E-01  6.754553E-02  4.274273E-02  0.000000E+00  2.323075E-02  1.145181E-02  1.175745E-17 -6.501000E-01  0.000000E+00
  5.889940E-02  3.827924E-02  5.000000E-01  5.949423E-02  3.863224E-02  0.000000E+00  2.230169E-02  1.171090E-02  1.206657E-17 -5.392513E-01  0.000000E+00
  5.157140E-02  3.431966E-02  5.000000E-01  5.209222E-02  3.463268E-02  0.000000E+00  2.131029E-02  1.176926E-02  8.235943E-18 -4.343230E-01  0.000000E+00
  4.484650E-02  3.052134E-02  5.000000E-01  4.529941E-02  3.079600E-02  0.000000E+00  2.040465E-02  1.174484E-02  7.803036E-18 -3.403210E-01  0.000000E+00
  3.869820E-02  2.691335E-02  5.000000E-01  3.908902E-02  2.715156E-02  0.000000E+00  1.973418E-02  1.180828E-02  3.263069E-18 -2.566932E-01  0.000000E+00
  3.311550E-02  2.350601E-02  5.000000E-01  3.344994E-02  2.370982E-02  0.000000E+00  1.937285E-02  1.208430E-02 -2.110825E-17 -1.778051E-01  0.000000E+00
  2.809130E-02  2.030538E-02  5.000000E-01  2.837500E-02  2.047686E-02  0.000000E+00  1.916351E-02  1.252790E-02 -7.408223E-17 -8.671578E-02  0.000000E+00
  2.362330E-02  1.731405E-02  5.000000E-01  2.386187E-02  1.745532E-02  0.000000E+00  1.865942E-02  1.274503E-02 -1.854712E-16  2.781438E-02  0.000000E+00
  1.966610E-02  1.455579E-02  5.000000E-01  1.986471E-02  1.466921E-02  0.000000E+00  1.758049E-02  1.220094E-02 -3.173423E-16  1.376587E-01  0.000000E+00
  1.609460E-02  1.208553E-02  5.000000E-01  1.625714E-02  1.217400E-02  0.000000E+00  1.623474E-02  1.099261E-02 -1.311106E-16  2.115193E-01  0.000000E+00
  1.282740E-02  9.923038E-03  5.000000E-01  1.295695E-02  9.989670E-03  0.000000E+00  1.526716E-02  9.884999E-03  1.354584E-15  2.496977E-01  0.000000E+00
  9.860990E-03  8.047358E-03  5.000000E-01  9.960578E-03  8.095048E-03  0.000000E+00  1.520626E-02  9.582897E-03  5.655043E-15  2.705497E-01  0.000000E+00
  7.251350E-03  6.409685E-03  5.000000E-01  7.324583E-03  6.440835E-03  0.000000E+00  1.627065E-02  1.039366E-02  1.257804E-14  2.898355E-01  0.000000E+00
  5.038810E-03  4.974204E-03  5.000000E-01  5.089698E-03  4.990857E-03  0.000000E+00  1.853924E-02  1.250112E-02  1.384206E-14  3.098225E-01  0.000000E+00
  3.239710E-03  3.722101E-03  5.000000E-01  3.272429E-03  3.726109E-03  0.000000E+00  2.205341E-02  1.641158E-02 -1.659502E-14  3.353315E-01  0.000000E+00
  1.861880E-03  2.642609E-03  5.000000E-01  1.880684E-03  2.635716E-03  0.000000E+00  2.623062E-02  2.290228E-02 -1.261123E-13  3.831556E-01  0.000000E+00
  9.013910E-04  1.733536E-03  5.000000E-01  9.104953E-04  1.717462E-03  0.000000E+00  2.844536E-02  3.178070E-02 -3.626258E-13  4.875186E-01  0.000000E+00
  3.295630E-04  1.002746E-03  5.000000E-01  3.328924E-04  9.792918E-04  0.000000E+00  2.403688E-02  3.858824E-02 -7.210506E-13  6.701373E-01  0.000000E+00
  7.194000E-05  4.664251E-04  5.000000E-01  7.266765E-05  4.375542E-04  0.000000E+00  1.299640E-02  3.488539E-02 -1.094662E-12  8.443385E-01  0.000000E+00
  4.516100E-06  1.415530E-04  5.000000E-01  4.562833E-06  1.094012E-04  0.000000E+00  3.361949E-03  2.420289E-02 -1.325791E-12  8.630323E-01  0.000000E+00
 -1.112850E-09  3.324568E-05  5.000000E-01  0.000000E+00  0.000000E+00  0.000000E+00 -1.436723E-03  2.619968E-02 -1.415796E-12  7.965758E-01  0.000000E+00