 Title = "ADflow Slice Data"
Variables =  "CoordinateX"  "CoordinateY"  "CoordinateZ"  "XoC"  "YoC"  "ZoC" "VelocityX" "VelocityY" "VelocityZ" "CoefPressure" "Mach" 
Zone T= "Slice_0001 None Absolute Regular z = 0.50000000"
 Nodes =          192  Elements=          184  ZONETYPE=FELINESEG
 DATAPACKING=POINT
  5.566560E-01  2.679123E-02  5.000000E-01  5.622776E-01  2.698781E-02  0.000000E+00  7.510152E-03  2.616680E-05 -2.077087E-19  2.828020E-01  0.000000E+00
  5.776220E-01  2.682245E-02  5.000000E-01  5.834554E-01  2.701934E-02  0.000000E+00  7.443104E-03 -1.240534E-05  6.232550E-19  2.846737E-01  0.000000E+00
  5.983370E-01  2.672331E-02  5.000000E-01  6.043796E-01  2.691920E-02  0.000000E+00  7.424208E-03 -6.658487E-05  1.096989E-18  2.877897E-01  0.000000E+00
  6.187480E-01  2.645399E-02  5.000000E-01  6.249967E-01  2.664716E-02  0.000000E+00  7.483090E-03 -1.371567E-04  9.981626E-19  2.893086E-01  0.000000E+00
  6.388030E-01  2.598395E-02  5.000000E-01  6.452542E-01  2.617237E-02  0.000000E+00  7.629505E-03 -2.245883E-04  1.167116E-18  2.879200E-01  0.000000E+00
  6.584530E-01  2.529170E-02  5.000000E-01  6.651027E-01  2.547314E-02  0.000000E+00  7.856935E-03 -3.254727E-04  8.967865E-19  2.836159E-01  0.000000E+00
  6.776550E-01  2.438008E-02  5.000000E-01  6.844986E-01  2.455231E-02  0.000000E+00  8.130230E-03 -4.202587E-04 -5.230939E-20  2.743916E-01  0.000000E+00
  6.963720E-01  2.333378E-02  5.000000E-01  7.034046E-01  2.349544E-02  0.000000E+00  8.386867E-03 -4.861052E-04 -3.094077E-19  2.600268E-01  0.000000E+00
  7.145680E-01  2.224321E-02  5.000000E-01  7.217844E-01  2.239387E-02  0.000000E+00  8.573591E-03 -5.174829E-04 -1.452342E-19  2.448991E-01  0.000000E+00
  7.322140E-01  2.117209E-02  5.000000E-01  7.396086E-01  2.131192E-02  0.000000E+00  8.668566E-03 -5.205507E-04  3.230823E-19  2.324385E-01  0.000000E+00
  7.492860E-01  2.015864E-02  5.000000E-01  7.568530E-01  2.028824E-02  0.000000E+00  8.674429E-03 -5.044124E-04  1.123729E-19  2.236117E-01  0.000000E+00
  7.657630E-01  1.922059E-02  5.000000E-01  7.734964E-01  1.934072E-02  0.000000E+00  8.607384E-03 -4.780388E-04 -1.889439E-18  2.180539E-01  0.000000E+00
  7.816300E-01  1.836121E-02  5.000000E-01  7.895236E-01  1.847265E-02  0.000000E+00  8.495542E-03 -4.539391E-04 -1.563383E-18  2.154440E-01  0.000000E+00
  7.968740E-01  1.755929E-02  5.000000E-01  8.049216E-01  1.766264E-02  0.000000E+00  8.386140E-03 -4.504077E-04  1.355652E-19  2.165765E-01  0.000000E+00
  8.114890E-01  1.675892E-02  5.000000E-01  8.196842E-01  1.685419E-02  0.000000E+00  8.327905E-03 -4.746584E-04  1.455945E-18  2.195462E-01  0.000000E+00
  8.254710E-01  1.592928E-02  5.000000E-01  8.338074E-01  1.601617E-02  0.000000E+00  8.336661E-03 -5.174909E-04  2.732145E-18  2.204727E-01  0.000000E+00
  8.388180E-01  1.506356E-02  5.000000E-01  8.472892E-01  1.514171E-02  0.000000E+00  8.397956E-03 -5.682642E-04  8.531599E-19  2.184511E-01  0.000000E+00
  8.515320E-01  1.416797E-02  5.000000E-01  8.601315E-01  1.423707E-02  0.000000E+00  8.492432E-03 -6.204444E-04 -1.376931E-18  2.144473E-01  0.000000E+00
  8.636180E-01  1.325393E-02  5.000000E-01  8.723396E-01  1.331380E-02  0.000000E+00  8.607054E-03 -6.709209E-04 -1.555146E-19  2.093084E-01  0.000000E+00
  8.750810E-01  1.233417E-02  5.000000E-01  8.839184E-01  1.238475E-02  0.000000E+00  8.733399E-03 -7.183781E-04  2.984937E-18  2.034024E-01  0.000000E+00
  8.859290E-01  1.142027E-02  5.000000E-01  8.948759E-01  1.146162E-02  0.000000E+00  8.865430E-03 -7.624262E-04  3.011514E-18  1.969817E-01  0.000000E+00
  8.961710E-01  1.052177E-02  5.000000E-01  9.052214E-01  1.055405E-02  0.000000E+00  8.999231E-03 -8.030647E-04  5.867506E-19  1.902547E-01  0.000000E+00
  9.058170E-01  9.646644E-03  5.000000E-01  9.149648E-01  9.670083E-03  0.000000E+00  9.132631E-03 -8.404331E-04 -1.270163E-18  1.833629E-01  0.000000E+00
  9.148770E-01  8.801259E-03  5.000000E-01  9.241163E-01  8.816161E-03  0.000000E+00  9.264377E-03 -8.746500E-04 -1.658571E-18  1.763835E-01  0.000000E+00
  9.148770E-01  8.801259E-03  5.000000E-01  9.241163E-01  8.816161E-03  0.000000E+00  9.264377E-03 -8.746500E-04 -1.658571E-18  1.763835E-01  0.000000E+00
  9.233640E-01  7.990786E-03  5.000000E-01  9.326890E-01  7.997503E-03  0.000000E+00  9.393869E-03 -9.060005E-04 -1.342745E-18  1.694046E-01  0.000000E+00
  9.312880E-01  7.219126E-03  5.000000E-01  9.406930E-01  7.218050E-03  0.000000E+00  9.521241E-03 -9.348760E-04 -1.311866E-18  1.625032E-01  0.000000E+00
  9.386620E-01  6.489220E-03  5.000000E-01  9.481415E-01  6.480772E-03  0.000000E+00  9.646928E-03 -9.616188E-04  5.307372E-19  1.557076E-01  0.000000E+00
  9.454960E-01  5.803276E-03  5.000000E-01  9.550445E-01  5.787901E-03  0.000000E+00  9.771115E-03 -9.864370E-04  1.622715E-18  1.490205E-01  0.000000E+00
  9.518040E-01  5.162827E-03  5.000000E-01  9.614162E-01  5.140984E-03  0.000000E+00  9.894209E-03 -1.009627E-03 -1.026981E-18  1.424788E-01  0.000000E+00
  9.575950E-01  4.568966E-03  5.000000E-01  9.672657E-01  4.541126E-03  0.000000E+00  1.001767E-02 -1.031588E-03 -2.255235E-18  1.361036E-01  0.000000E+00
  9.628810E-01  4.022383E-03  5.000000E-01  9.726051E-01  3.989023E-03  0.000000E+00  1.014473E-02 -1.052801E-03 -3.856920E-19  1.298911E-01  0.000000E+00
  9.676710E-01  3.523495E-03  5.000000E-01  9.774434E-01  3.485097E-03  0.000000E+00  1.028139E-02 -1.074062E-03 -1.680028E-19  1.238607E-01  0.000000E+00
  9.719750E-01  3.072518E-03  5.000000E-01  9.817909E-01  3.029566E-03  0.000000E+00  1.043559E-02 -1.096254E-03 -1.698878E-18  1.180286E-01  0.000000E+00
  9.758020E-01  2.669484E-03  5.000000E-01  9.856565E-01  2.622461E-03  0.000000E+00  1.060998E-02 -1.119763E-03 -3.230276E-18  1.124261E-01  0.000000E+00
  9.791590E-01  2.314362E-03  5.000000E-01  9.890474E-01  2.263753E-03  0.000000E+00  1.078254E-02 -1.142530E-03 -2.407820E-18  1.069410E-01  0.000000E+00
  9.820540E-01  2.007031E-03  5.000000E-01  9.919717E-01  1.953318E-03  0.000000E+00  1.088850E-02 -1.158657E-03  6.538467E-18  1.019155E-01  0.000000E+00
  9.844930E-01  1.747354E-03  5.000000E-01  9.944353E-01  1.691019E-03  0.000000E+00  1.080993E-02 -1.152559E-03  3.031894E-17  9.823341E-02  0.000000E+00
  9.864820E-01  1.535158E-03  5.000000E-01  9.964444E-01  1.476680E-03  0.000000E+00  1.025226E-02 -1.083908E-03  5.021931E-17  9.239999E-02  0.000000E+00
  9.880240E-01  1.370309E-03  5.000000E-01  9.980020E-01  1.310166E-03  0.000000E+00  8.745909E-03 -9.431269E-04 -4.308471E-17  7.841368E-02  0.000000E+00
  9.891220E-01  1.252644E-03  5.000000E-01  9.991111E-01  1.191313E-03  0.000000E+00  8.031562E-03 -9.731138E-04 -5.215429E-16  9.434041E-02  0.000000E+00
  9.897810E-01  1.182093E-03  5.000000E-01  9.997767E-01  1.120049E-03  0.000000E+00  1.520012E-02 -4.674589E-04 -1.567633E-15  1.868177E-01  0.000000E+00
  9.900000E-01  1.158588E-03  5.000000E-01  9.999979E-01  1.096307E-03  0.000000E+00  1.277193E-02 -1.449908E-03 -2.034171E-15 -4.628890E-02  0.000000E+00
  9.900000E-01  1.344808E-03  5.000000E-01  9.999979E-01  1.284408E-03  0.000000E+00  1.184345E-03 -1.324165E-02 -1.286036E-15 -1.856040E-01  0.000000E+00
  9.900000E-01  1.531019E-03  5.000000E-01  9.999979E-01  1.472499E-03  0.000000E+00 -7.212506E-04 -1.401834E-02 -3.433068E-16 -9.580532E-03  0.000000E+00
  9.900000E-01  1.717239E-03  5.000000E-01  9.999979E-01  1.660600E-03  0.000000E+00 -4.569573E-04  3.268497E-03  4.375753E-16 -1.829508E-02  0.000000E+00
  9.900000E-01  1.903460E-03  5.000000E-01  9.999979E-01  1.848701E-03  0.000000E+00  7.919290E-04  3.422073E-03  1.584024E-15 -1.391705E-01  0.000000E+00
  9.900000E-01  2.089680E-03  5.000000E-01  9.999979E-01  2.036802E-03  0.000000E+00  7.986599E-03 -4.415358E-03  2.413355E-15 -4.309973E-02  0.000000E+00
  9.900000E-01  2.089680E-03  5.000000E-01  9.999979E-01  2.036802E-03  0.000000E+00  7.986599E-03 -4.415358E-03  2.413355E-15 -4.309973E-02  0.000000E+00
  9.897920E-01  2.131064E-03  5.000000E-01  9.997878E-01  2.078604E-03  0.000000E+00  8.784977E-03 -2.567508E-03  1.725884E-15  9.806336E-02  0.000000E+00
  9.891660E-01  2.255171E-03  5.000000E-01  9.991555E-01  2.203964E-03  0.000000E+00  3.227760E-03 -5.532379E-04  5.615942E-16  2.794001E-02  0.000000E+00
  9.881230E-01  2.461938E-03  5.000000E-01  9.981020E-01  2.412819E-03  0.000000E+00  3.126381E-03 -6.146362E-04  4.843562E-17  1.520510E-02  0.000000E+00
  9.866580E-01  2.751221E-03  5.000000E-01  9.966222E-01  2.705023E-03  0.000000E+00  3.747157E-03 -7.469365E-04 -5.692502E-17  2.166829E-02  0.000000E+00
  9.847700E-01  3.122832E-03  5.000000E-01  9.947151E-01  3.080388E-03  0.000000E+00  3.924928E-03 -7.706626E-04 -3.814735E-17  2.021129E-02  0.000000E+00
  9.824550E-01  3.576529E-03  5.000000E-01  9.923767E-01  3.538666E-03  0.000000E+00  3.977354E-03 -7.763930E-04 -1.327783E-17  1.527524E-02  0.000000E+00
  9.797070E-01  4.111966E-03  5.000000E-01  9.896010E-01  4.079511E-03  0.000000E+00  4.050318E-03 -7.867704E-04 -3.686388E-18  9.786619E-03  0.000000E+00
  9.765220E-01  4.728765E-03  5.000000E-01  9.863838E-01  4.702539E-03  0.000000E+00  4.159076E-03 -8.024991E-04 -9.339168E-19  3.418343E-03  0.000000E+00
  9.728930E-01  5.426450E-03  5.000000E-01  9.827182E-01  5.407269E-03  0.000000E+00  4.304369E-03 -8.240512E-04  3.541660E-19 -3.941408E-03  0.000000E+00
  9.688130E-01  6.204438E-03  5.000000E-01  9.785970E-01  6.193114E-03  0.000000E+00  4.481716E-03 -8.505588E-04 -5.202589E-19 -1.213861E-02  0.000000E+00
  9.642740E-01  7.062076E-03  5.000000E-01  9.740121E-01  7.059414E-03  0.000000E+00  4.682568E-03 -8.801849E-04 -9.566522E-19 -2.101984E-02  0.000000E+00
  9.592670E-01  7.998599E-03  5.000000E-01  9.689546E-01  8.005395E-03  0.000000E+00  4.899148E-03 -9.113722E-04 -1.057686E-18 -3.054415E-02  0.000000E+00
  9.537850E-01  9.013163E-03  5.000000E-01  9.634172E-01  9.030204E-03  0.000000E+00  5.126137E-03 -9.429057E-04 -5.259029E-19 -4.058825E-02  0.000000E+00
  9.478160E-01  1.010472E-02  5.000000E-01  9.573879E-01  1.013278E-02  0.000000E+00  5.359599E-03 -9.739423E-04 -4.002344E-19 -5.108141E-02  0.000000E+00
  9.413520E-01  1.127227E-02  5.000000E-01  9.508586E-01  1.131212E-02  0.000000E+00  5.596913E-03 -1.003954E-03 -2.427723E-18 -6.195820E-02  0.000000E+00
  9.343800E-01  1.251462E-02  5.000000E-01  9.438162E-01  1.256702E-02  0.000000E+00  5.835918E-03 -1.032515E-03 -2.188401E-18 -7.312480E-02  0.000000E+00
  9.268920E-01  1.383034E-02  5.000000E-01  9.362526E-01  1.389603E-02  0.000000E+00  6.074669E-03 -1.059306E-03 -1.343959E-18 -8.453647E-02  0.000000E+00
  9.188750E-01  1.521815E-02  5.000000E-01  9.281546E-01  1.529786E-02  0.000000E+00  6.311438E-03 -1.084030E-03 -2.279138E-18 -9.610665E-02  0.000000E+00
  9.103190E-01  1.667656E-02  5.000000E-01  9.195122E-01  1.677099E-02  0.000000E+00  6.544462E-03 -1.106499E-03 -1.831556E-18 -1.077920E-01  0.000000E+00
  9.012130E-01  1.820405E-02  5.000000E-01  9.103143E-01  1.831391E-02  0.000000E+00  6.772093E-03 -1.126490E-03 -2.104569E-18 -1.195172E-01  0.000000E+00
  8.915460E-01  1.979897E-02  5.000000E-01  9.005496E-01  1.992494E-02  0.000000E+00  6.992662E-03 -1.143912E-03 -2.772490E-18 -1.312500E-01  0.000000E+00
  8.813080E-01  2.145989E-02  5.000000E-01  8.902083E-01  2.160263E-02  0.000000E+00  7.204626E-03 -1.158758E-03 -2.182377E-18 -1.429399E-01  0.000000E+00
  8.704900E-01  2.318519E-02  5.000000E-01  8.792810E-01  2.334535E-02  0.000000E+00  7.406149E-03 -1.171044E-03 -1.236164E-18 -1.545101E-01  0.000000E+00
  8.704900E-01  2.318519E-02  5.000000E-01  8.792810E-01  2.334535E-02  0.000000E+00  7.406149E-03 -1.171044E-03 -1.236164E-18 -1.545101E-01  0.000000E+00
  8.590830E-01  2.497366E-02  5.000000E-01  8.677588E-01  2.515189E-02  0.000000E+00  7.595526E-03 -1.181126E-03 -2.961664E-19 -1.659957E-01  0.000000E+00
  8.470810E-01  2.682492E-02  5.000000E-01  8.556356E-01  2.702184E-02  0.000000E+00  7.772283E-03 -1.189621E-03  1.572446E-18 -1.774698E-01  0.000000E+00
  8.344780E-01  2.873930E-02  5.000000E-01  8.429053E-01  2.895555E-02  0.000000E+00  7.936977E-03 -1.197207E-03  2.333737E-18 -1.889575E-01  0.000000E+00
  8.212700E-01  3.071794E-02  5.000000E-01  8.295639E-01  3.095418E-02  0.000000E+00  8.090817E-03 -1.204775E-03  3.205860E-18 -2.005383E-01  0.000000E+00
  8.074550E-01  3.276302E-02  5.000000E-01  8.156094E-01  3.301991E-02  0.000000E+00  8.236980E-03 -1.213659E-03  3.035651E-18 -2.125194E-01  0.000000E+00
  7.930350E-01  3.487788E-02  5.000000E-01  8.010438E-01  3.515613E-02  0.000000E+00  8.383394E-03 -1.225484E-03  1.372459E-18 -2.255655E-01  0.000000E+00
  7.780130E-01  3.706628E-02  5.000000E-01  7.858701E-01  3.736663E-02  0.000000E+00  8.543748E-03 -1.240990E-03  3.910540E-18 -2.403420E-01  0.000000E+00
  7.623950E-01  3.932801E-02  5.000000E-01  7.700944E-01  3.965120E-02  0.000000E+00  8.732354E-03 -1.258520E-03  4.313607E-18 -2.568248E-01  0.000000E+00
  7.461930E-01  4.165211E-02  5.000000E-01  7.537287E-01  4.199877E-02  0.000000E+00  8.956570E-03 -1.275265E-03  9.392658E-19 -2.746451E-01  0.000000E+00
  7.294180E-01  4.402305E-02  5.000000E-01  7.367843E-01  4.439366E-02  0.000000E+00  9.215721E-03 -1.289221E-03 -1.424862E-18 -2.936134E-01  0.000000E+00
  7.120900E-01  4.642261E-02  5.000000E-01  7.192813E-01  4.681745E-02  0.000000E+00  9.503668E-03 -1.298298E-03 -1.176882E-18 -3.133062E-01  0.000000E+00
  6.942280E-01  4.883029E-02  5.000000E-01  7.012389E-01  4.924944E-02  0.000000E+00  9.808825E-03 -1.300277E-03  1.634117E-19 -3.330049E-01  0.000000E+00
  6.758590E-01  5.122578E-02  5.000000E-01  6.826844E-01  5.166913E-02  0.000000E+00  1.011484E-02 -1.293917E-03 -3.578047E-19 -3.519135E-01  0.000000E+00
  6.570120E-01  5.359165E-02  5.000000E-01  6.636471E-01  5.405889E-02  0.000000E+00  1.040462E-02 -1.280280E-03 -1.282942E-18 -3.697245E-01  0.000000E+00
  6.377220E-01  5.591868E-02  5.000000E-01  6.441623E-01  5.640942E-02  0.000000E+00  1.066814E-02 -1.263074E-03 -1.464317E-18 -3.870721E-01  0.000000E+00
  6.180260E-01  5.820743E-02  5.000000E-01  6.242674E-01  5.872128E-02  0.000000E+00  1.090834E-02 -1.245461E-03 -1.424488E-18 -4.047515E-01  0.000000E+00
  5.979670E-01  6.045781E-02  5.000000E-01  6.040058E-01  6.099439E-02  0.000000E+00  1.113846E-02 -1.228470E-03 -1.042304E-18 -4.234205E-01  0.000000E+00
  5.775910E-01  6.266697E-02  5.000000E-01  5.834240E-01  6.322586E-02  0.000000E+00  1.137700E-02 -1.212093E-03 -4.052885E-20 -4.438869E-01  0.000000E+00
  5.569470E-01  6.482792E-02  5.000000E-01  5.625716E-01  6.540863E-02  0.000000E+00  1.164379E-02 -1.194766E-03  6.694922E-19 -4.666338E-01  0.000000E+00
  5.360860E-01  6.692612E-02  5.000000E-01  5.414999E-01  6.752802E-02  0.000000E+00  1.195363E-02 -1.172776E-03  3.525523E-19 -4.914328E-01  0.000000E+00
  5.150640E-01  6.893804E-02  5.000000E-01  5.202656E-01  6.956025E-02  0.000000E+00  1.231086E-02 -1.141867E-03 -3.816853E-19 -5.177395E-01  0.000000E+00
  4.939370E-01  7.083689E-02  5.000000E-01  4.989252E-01  7.147829E-02  0.000000E+00  1.270990E-02 -1.098964E-03 -1.195225E-18 -5.450928E-01  0.000000E+00
  4.727610E-01  7.259757E-02  5.000000E-01  4.775354E-01  7.325674E-02  0.000000E+00  1.313856E-02 -1.041703E-03 -5.166630E-19 -5.727257E-01  0.000000E+00
  5.770140E-06 -3.854403E-05  5.000000E-01  5.829536E-06 -1.129147E-04  0.000000E+00  4.782425E-03 -2.834469E-02 -5.301640E-13  8.911153E-01  0.000000E+00
  9.104010E-05 -3.669963E-04  5.000000E-01  9.196063E-05 -4.446840E-04  0.000000E+00  2.259496E-02 -3.998945E-02 -4.624489E-13  8.793014E-01  0.000000E+00
  4.796980E-04 -8.679034E-04  5.000000E-01  4.845436E-04 -9.506497E-04  0.000000E+00  4.154919E-02 -3.654679E-02 -3.095256E-13  5.383622E-01  0.000000E+00
  1.456590E-03 -1.431973E-03  5.000000E-01  1.471301E-03 -1.520416E-03  0.000000E+00  4.336000E-02 -2.021042E-02 -1.496014E-13  2.015925E-01  0.000000E+00
  3.096410E-03 -1.956839E-03  5.000000E-01  3.127682E-03 -2.050582E-03  0.000000E+00  3.436555E-02 -9.361841E-03 -4.599619E-14  1.035810E-01  0.000000E+00
  5.335170E-03 -2.421691E-03  5.000000E-01  5.389051E-03 -2.520129E-03  0.000000E+00  2.685405E-02 -4.778808E-03 -2.173454E-15  1.026274E-01  0.000000E+00
  8.129670E-03 -2.821377E-03  5.000000E-01  8.211772E-03 -2.923851E-03  0.000000E+00  2.246539E-02 -2.714633E-03  7.377647E-15  9.163881E-02  0.000000E+00
  1.145600E-02 -3.138785E-03  5.000000E-01  1.157169E-02 -3.244465E-03  0.000000E+00  1.923335E-02 -1.380093E-03  5.145098E-15  6.319179E-02  0.000000E+00
  1.529970E-02 -3.308632E-03  5.000000E-01  1.545421E-02 -3.416027E-03  0.000000E+00  1.582320E-02 -2.835900E-04  1.900594E-15  3.179436E-02  0.000000E+00
  1.962420E-02 -3.241442E-03  5.000000E-01  1.982238E-02 -3.348159E-03  0.000000E+00  1.231736E-02  4.035608E-04  2.809814E-16  3.063972E-02  0.000000E+00
  2.439810E-02 -2.961926E-03  5.000000E-01  2.464450E-02 -3.065819E-03  0.000000E+00  9.997936E-03  5.769382E-04 -1.381705E-16  8.915679E-02  0.000000E+00
  2.966100E-02 -2.660512E-03  5.000000E-01  2.996055E-02 -2.761361E-03  0.000000E+00  9.630709E-03  5.050271E-04 -1.200546E-16  1.584790E-01  0.000000E+00
  3.543640E-02 -2.401048E-03  5.000000E-01  3.579427E-02 -2.499277E-03  0.000000E+00  1.040882E-02  4.291419E-04 -4.417032E-17  1.803729E-01  0.000000E+00
  4.172970E-02 -2.166109E-03  5.000000E-01  4.215113E-02 -2.261965E-03  0.000000E+00  1.118949E-02  4.087125E-04 -3.557701E-18  1.704083E-01  0.000000E+00
  4.854440E-02 -1.919453E-03  5.000000E-01  4.903465E-02 -2.012818E-03  0.000000E+00  1.152288E-02  4.500058E-04  6.236928E-18  1.555857E-01  0.000000E+00
  5.588220E-02 -1.610231E-03  5.000000E-01  5.644655E-02 -1.700474E-03  0.000000E+00  1.147976E-02  5.214474E-04  3.444343E-18  1.472621E-01  0.000000E+00
  6.375220E-02 -1.224678E-03  5.000000E-01  6.439603E-02 -1.311027E-03  0.000000E+00  1.129469E-02  5.757639E-04  1.171423E-18  1.482893E-01  0.000000E+00
  7.217040E-02 -7.779755E-04  5.000000E-01  7.289924E-02 -8.598136E-04  0.000000E+00  1.115292E-02  5.967102E-04  8.777051E-19  1.541713E-01  0.000000E+00
  8.115500E-02 -2.941396E-04  5.000000E-01  8.197458E-02 -3.710916E-04  0.000000E+00  1.110632E-02  5.982371E-04  1.201046E-18  1.585940E-01  0.000000E+00
  9.072040E-02  2.198368E-04  5.000000E-01  9.163658E-02  1.480754E-04  0.000000E+00  1.111081E-02  5.996498E-04  1.025310E-18  1.585740E-01  0.000000E+00
  1.008780E-01  7.703271E-04  5.000000E-01  1.018968E-01  7.041251E-04  0.000000E+00  1.111400E-02  6.077491E-04  1.502993E-18  1.560396E-01  0.000000E+00
  1.116380E-01  1.364478E-03  5.000000E-01  1.127654E-01  1.304276E-03  0.000000E+00  1.109319E-02  6.228726E-04  2.342097E-18  1.531861E-01  0.000000E+00
  1.230100E-01  2.013684E-03  5.000000E-01  1.242523E-01  1.960039E-03  0.000000E+00  1.103706E-02  6.455415E-04  8.947685E-19  1.505070E-01  0.000000E+00
  1.350030E-01  2.731965E-03  5.000000E-01  1.363664E-01  2.685573E-03  0.000000E+00  1.093095E-02  6.754550E-04 -1.399463E-19  1.483404E-01  0.000000E+00
  1.350030E-01  2.731965E-03  5.000000E-01  1.363664E-01  2.685573E-03  0.000000E+00  1.093095E-02  6.754550E-04 -1.399463E-19  1.483404E-01  0.000000E+00
  1.476220E-01  3.535969E-03  5.000000E-01  1.491128E-01  3.497697E-03  0.000000E+00  1.075985E-02  7.113602E-04  2.099809E-19  1.473390E-01  0.000000E+00
  1.608730E-01  4.444481E-03  5.000000E-01  1.624976E-01  4.415384E-03  0.000000E+00  1.051626E-02  7.510761E-04  5.161941E-19  1.483577E-01  0.000000E+00
  1.747560E-01  5.476914E-03  5.000000E-01  1.765208E-01  5.458244E-03  0.000000E+00  1.020600E-02  7.906860E-04 -3.835372E-19  1.521532E-01  0.000000E+00
  1.892730E-01  6.647942E-03  5.000000E-01  1.911845E-01  6.641098E-03  0.000000E+00  9.850507E-03  8.223199E-04 -5.271606E-19  1.591585E-01  0.000000E+00
  2.044180E-01  7.957417E-03  5.000000E-01  2.064824E-01  7.963797E-03  0.000000E+00  9.491761E-03  8.332905E-04 -1.433850E-18  1.705041E-01  0.000000E+00
  2.201880E-01  9.364955E-03  5.000000E-01  2.224117E-01  9.385550E-03  0.000000E+00  9.175024E-03  8.195597E-04 -2.196352E-18  1.851729E-01  0.000000E+00
  2.365750E-01  1.082885E-02  5.000000E-01  2.389642E-01  1.086423E-02  0.000000E+00  8.913959E-03  7.908800E-04 -1.892742E-19  1.992434E-01  0.000000E+00
  2.535710E-01  1.232483E-02  5.000000E-01  2.561318E-01  1.237532E-02  0.000000E+00  8.692960E-03  7.560882E-04  1.927449E-19  2.110257E-01  0.000000E+00
  2.711570E-01  1.383550E-02  5.000000E-01  2.738954E-01  1.390124E-02  0.000000E+00  8.494683E-03  7.178419E-04 -1.500365E-19  2.213872E-01  0.000000E+00
  2.893100E-01  1.534414E-02  5.000000E-01  2.922317E-01  1.542512E-02  0.000000E+00  8.312170E-03  6.762085E-04 -4.274444E-19  2.313296E-01  0.000000E+00
  3.080020E-01  1.683134E-02  5.000000E-01  3.111125E-01  1.692733E-02  0.000000E+00  8.142622E-03  6.323732E-04 -7.863976E-19  2.407441E-01  0.000000E+00
  3.271950E-01  1.828415E-02  5.000000E-01  3.304993E-01  1.839482E-02  0.000000E+00  7.982948E-03  5.874401E-04 -9.476925E-19  2.493182E-01  0.000000E+00
  3.468470E-01  1.968821E-02  5.000000E-01  3.503498E-01  1.981306E-02  0.000000E+00  7.835451E-03  5.402594E-04 -1.363832E-18  2.575496E-01  0.000000E+00
  3.669110E-01  2.102105E-02  5.000000E-01  3.706164E-01  2.115935E-02  0.000000E+00  7.709281E-03  4.899658E-04 -1.687661E-18  2.655745E-01  0.000000E+00
  3.873360E-01  2.225941E-02  5.000000E-01  3.912477E-01  2.241022E-02  0.000000E+00  7.614679E-03  4.364216E-04 -2.908530E-18  2.728731E-01  0.000000E+00
  4.080670E-01  2.337794E-02  5.000000E-01  4.121880E-01  2.354005E-02  0.000000E+00  7.559819E-03  3.781633E-04 -3.170588E-18  2.791654E-01  0.000000E+00
  4.290470E-01  2.434505E-02  5.000000E-01  4.333799E-01  2.451692E-02  0.000000E+00  7.549079E-03  3.138716E-04 -8.008175E-19  2.843789E-01  0.000000E+00
  4.502140E-01  2.512967E-02  5.000000E-01  4.547607E-01  2.530947E-02  0.000000E+00  7.575406E-03  2.471049E-04 -3.501151E-19  2.876476E-01  0.000000E+00
  4.715070E-01  2.572864E-02  5.000000E-01  4.762687E-01  2.591449E-02  0.000000E+00  7.614908E-03  1.854862E-04 -2.351416E-18  2.879397E-01  0.000000E+00
  4.928620E-01  2.616798E-02  5.000000E-01  4.978394E-01  2.635826E-02  0.000000E+00  7.638686E-03  1.332920E-04 -2.041365E-18  2.862140E-01  0.000000E+00
  5.142140E-01  2.647480E-02  5.000000E-01  5.194070E-01  2.666818E-02  0.000000E+00  7.629227E-03  9.058716E-05 -1.073009E-18  2.844049E-01  0.000000E+00
  5.355000E-01  2.667431E-02  5.000000E-01  5.409080E-01  2.686971E-02  0.000000E+00  7.582815E-03  5.664938E-05 -9.926148E-19  2.831235E-01  0.000000E+00
  5.566560E-01  2.679123E-02  5.000000E-01  5.622776E-01  2.698781E-02  0.000000E+00  7.510152E-03  2.616680E-05 -2.077087E-19  2.828020E-01  0.000000E+00
  4.727610E-01  7.259757E-02  5.000000E-01  4.775354E-01  7.325674E-02  0.000000E+00  1.313856E-02 -1.041703E-03 -5.166630E-19 -5.727257E-01  0.000000E+00
  4.515970E-01  7.419680E-02  5.000000E-01  4.561576E-01  7.487212E-02  0.000000E+00  1.357852E-02 -9.680562E-04  2.241905E-19 -5.992892E-01  0.000000E+00
  4.305020E-01  7.561414E-02  5.000000E-01  4.348496E-01  7.630377E-02  0.000000E+00  1.400686E-02 -8.795525E-04 -1.605836E-18 -6.242017E-01  0.000000E+00
  4.095340E-01  7.684131E-02  5.000000E-01  4.136698E-01  7.754334E-02  0.000000E+00  1.440779E-02 -7.823067E-04 -2.292686E-18 -6.486939E-01  0.000000E+00
  3.887520E-01  7.788367E-02  5.000000E-01  3.926780E-01  7.859623E-02  0.000000E+00  1.478463E-02 -6.797513E-04 -1.880186E-18 -6.741277E-01  0.000000E+00
  3.682080E-01  7.874417E-02  5.000000E-01  3.719265E-01  7.946542E-02  0.000000E+00  1.515395E-02 -5.695881E-04 -1.224028E-18 -7.009106E-01  0.000000E+00
  3.479570E-01  7.942034E-02  5.000000E-01  3.514710E-01  8.014842E-02  0.000000E+00  1.553245E-02 -4.479366E-04  6.305824E-19 -7.290490E-01  0.000000E+00
  3.280470E-01  7.990613E-02  5.000000E-01  3.313599E-01  8.063911E-02  0.000000E+00  1.593184E-02 -3.127216E-04  8.292097E-19 -7.588147E-01  0.000000E+00
  3.085240E-01  8.019836E-02  5.000000E-01  3.116398E-01  8.093430E-02  0.000000E+00  1.636188E-02 -1.630400E-04 -2.948572E-19 -7.908690E-01  0.000000E+00
  2.894320E-01  8.029579E-02  5.000000E-01  2.923549E-01  8.103271E-02  0.000000E+00  1.683436E-02  5.309602E-06 -8.980411E-19 -8.256983E-01  0.000000E+00
  2.708110E-01  8.019241E-02  5.000000E-01  2.735459E-01  8.092828E-02  0.000000E+00  1.736535E-02  1.998549E-04 -7.891531E-19 -8.647513E-01  0.000000E+00
  2.526960E-01  7.987844E-02  5.000000E-01  2.552480E-01  8.061115E-02  0.000000E+00  1.798834E-02  4.306014E-04 -6.461990E-19 -9.116167E-01  0.000000E+00
  2.351200E-01  7.934392E-02  5.000000E-01  2.374945E-01  8.007123E-02  0.000000E+00  1.876231E-02  7.247703E-04 -2.570129E-18 -9.672697E-01  0.000000E+00
  2.181120E-01  7.855304E-02  5.000000E-01  2.203147E-01  7.927236E-02  0.000000E+00  1.973112E-02  1.129778E-03 -4.806170E-18 -1.026441E+00  0.000000E+00
  2.017010E-01  7.744620E-02  5.000000E-01  2.037380E-01  7.815434E-02  0.000000E+00  2.087227E-02  1.681196E-03 -3.594274E-18 -1.083036E+00  0.000000E+00
  1.859190E-01  7.597953E-02  5.000000E-01  1.877966E-01  7.667286E-02  0.000000E+00  2.210937E-02  2.392280E-03 -1.893211E-18 -1.132069E+00  0.000000E+00
  1.707920E-01  7.412457E-02  5.000000E-01  1.725168E-01  7.479917E-02  0.000000E+00  2.334281E-02  3.264233E-03 -1.625671E-18 -1.167575E+00  0.000000E+00
  1.563470E-01  7.186891E-02  5.000000E-01  1.579259E-01  7.252073E-02  0.000000E+00  2.445991E-02  4.280881E-03 -1.509863E-18 -1.183660E+00  0.000000E+00
  1.426070E-01  6.921654E-02  5.000000E-01  1.440472E-01  6.984157E-02  0.000000E+00  2.534944E-02  5.400120E-03 -1.537869E-18 -1.176367E+00  0.000000E+00
  1.295900E-01  6.619169E-02  5.000000E-01  1.308987E-01  6.678617E-02  0.000000E+00  2.592613E-02  6.556385E-03 -3.370438E-18 -1.145061E+00  0.000000E+00
  1.173060E-01  6.283781E-02  5.000000E-01  1.184907E-01  6.339842E-02  0.000000E+00  2.615284E-02  7.681772E-03 -4.482967E-18 -1.091357E+00  0.000000E+00
  1.057600E-01  5.920867E-02  5.000000E-01  1.068281E-01  5.973263E-02  0.000000E+00  2.603987E-02  8.722101E-03 -1.271782E-18 -1.018036E+00  0.000000E+00
  9.495290E-02  5.536401E-02  5.000000E-01  9.591182E-02  5.584915E-02  0.000000E+00  2.563314E-02  9.638103E-03  2.112374E-18 -9.291874E-01  0.000000E+00
  8.487680E-02  5.136740E-02  5.000000E-01  8.573396E-02  5.181217E-02  0.000000E+00  2.500029E-02  1.041039E-02  5.848291E-18 -8.283723E-01  0.000000E+00
  8.487680E-02  5.136740E-02  5.000000E-01  8.573396E-02  5.181217E-02  0.000000E+00  2.500029E-02  1.041039E-02  5.848291E-18 -8.283723E-01  0.000000E+00
  7.552090E-02  4.728204E-02  5.000000E-01  7.628358E-02  4.768556E-02  0.000000E+00  2.419907E-02  1.103145E-02  1.129588E-17 -7.169406E-01  0.000000E+00
  6.687020E-02  4.316764E-02  5.000000E-01  6.754552E-02  4.352960E-02  0.000000E+00  2.325805E-02  1.147478E-02  1.316797E-17 -5.976159E-01  0.000000E+00
  5.889940E-02  3.908822E-02  5.000000E-01  5.949422E-02  3.940898E-02  0.000000E+00  2.221287E-02  1.170814E-02  1.096167E-17 -4.773509E-01  0.000000E+00
  5.157140E-02  3.510821E-02  5.000000E-01  5.209222E-02  3.538878E-02  0.000000E+00  2.115230E-02  1.175756E-02  8.851478E-18 -3.641609E-01  0.000000E+00
  4.484650E-02  3.128022E-02  5.000000E-01  4.529940E-02  3.152214E-02  0.000000E+00  2.021021E-02  1.173900E-02  7.827863E-18 -2.621470E-01  0.000000E+00
  3.869820E-02  2.763464E-02  5.000000E-01  3.908901E-02  2.783974E-02  0.000000E+00  1.951409E-02  1.181259E-02  1.732622E-18 -1.702744E-01  0.000000E+00
  3.311550E-02  2.418359E-02  5.000000E-01  3.344993E-02  2.435383E-02  0.000000E+00  1.912086E-02  1.209314E-02 -1.782290E-17 -8.333113E-02  0.000000E+00
  2.809130E-02  2.093481E-02  5.000000E-01  2.837499E-02  2.107225E-02  0.000000E+00  1.888786E-02  1.254445E-02 -4.828597E-17  1.378994E-02  0.000000E+00
  2.362330E-02  1.789273E-02  5.000000E-01  2.386187E-02  1.799944E-02  0.000000E+00  1.843407E-02  1.281999E-02 -9.721010E-17  1.310401E-01  0.000000E+00
  1.966610E-02  1.508119E-02  5.000000E-01  1.986471E-02  1.515951E-02  0.000000E+00  1.755517E-02  1.244554E-02 -1.605011E-16  2.430677E-01  0.000000E+00
  1.609460E-02  1.255223E-02  5.000000E-01  1.625714E-02  1.260502E-02  0.000000E+00  1.656754E-02  1.151573E-02 -1.122525E-16  3.232336E-01  0.000000E+00
  1.282740E-02  1.032489E-02  5.000000E-01  1.295694E-02  1.035518E-02  0.000000E+00  1.603090E-02  1.072114E-02  4.633162E-16  3.743189E-01  0.000000E+00
  9.860990E-03  8.380664E-03  5.000000E-01  9.960576E-03  8.391318E-03  0.000000E+00  1.632880E-02  1.069058E-02  2.273239E-15  4.142383E-01  0.000000E+00
  7.251350E-03  6.675511E-03  5.000000E-01  7.324582E-03  6.668945E-03  0.000000E+00  1.752378E-02  1.166953E-02  5.447248E-15  4.573461E-01  0.000000E+00
  5.038810E-03  5.177532E-03  5.000000E-01  5.089698E-03  5.155838E-03  0.000000E+00  1.948539E-02  1.370618E-02  6.875905E-15  5.062829E-01  0.000000E+00
  3.239710E-03  3.870708E-03  5.000000E-01  3.272429E-03  3.835817E-03  0.000000E+00  2.181900E-02  1.689207E-02 -4.089560E-15  5.677378E-01  0.000000E+00
  1.861880E-03  2.746629E-03  5.000000E-01  1.880684E-03  2.700385E-03  0.000000E+00  2.319080E-02  2.088839E-02 -4.774143E-14  6.580187E-01  0.000000E+00
  9.013910E-04  1.804890E-03  5.000000E-01  9.104952E-04  1.749136E-03  0.000000E+00  2.058703E-02  2.320751E-02 -1.453668E-13  7.966896E-01  0.000000E+00
  3.295630E-04  1.053994E-03  5.000000E-01  3.328924E-04  9.906564E-04  0.000000E+00  1.146547E-02  1.686437E-02 -2.947269E-13  9.630604E-01  0.000000E+00
  7.194000E-05  5.085875E-04  5.000000E-01  7.266764E-05  4.397422E-04  0.000000E+00  7.432380E-04 -4.766621E-03 -4.451889E-13  1.032435E+00  0.000000E+00
  4.516100E-06  1.815609E-04  5.000000E-01  4.562832E-06  1.094131E-04  0.000000E+00 -3.133375E-03 -2.866573E-02 -5.221760E-13  9.161223E-01  0.000000E+00
 -1.112850E-09  7.324175E-05  5.000000E-01  0.000000E+00  0.000000E+00  0.000000E+00 -1.356422E-03 -2.974397E-02 -5.344420E-13  8.075127E-01  0.000000E+00