 Title = "ADflow Slice Data"
Variables =  "CoordinateX"  "CoordinateY"  "CoordinateZ"  "XoC"  "YoC"  "ZoC" "VelocityX" "VelocityY" "VelocityZ" "CoefPressure" "Mach" 
Zone T= "Slice_0001 None Absolute Regular z = 0.50000000"
 Nodes =          192  Elements=          184  ZONETYPE=FELINESEG
 DATAPACKING=POINT
  5.566560E-01  2.632772E-02  5.000000E-01  5.622776E-01  2.655797E-02  0.000000E+00  7.364935E-03  1.195338E-04 -5.229246E-19  2.903487E-01  0.000000E+00
  5.776220E-01  2.657973E-02  5.000000E-01  5.834553E-01  2.681253E-02  0.000000E+00  7.402805E-03  6.127775E-05 -1.206262E-18  2.907990E-01  0.000000E+00
  5.983370E-01  2.667344E-02  5.000000E-01  6.043795E-01  2.690719E-02  0.000000E+00  7.443751E-03  9.603510E-06 -1.202348E-18  2.892845E-01  0.000000E+00
  6.187480E-01  2.663446E-02  5.000000E-01  6.249966E-01  2.686781E-02  0.000000E+00  7.470989E-03 -3.439849E-05  8.549609E-20  2.871624E-01  0.000000E+00
  6.388030E-01  2.648855E-02  5.000000E-01  6.452541E-01  2.672043E-02  0.000000E+00  7.475791E-03 -7.053346E-05  3.682311E-19  2.852042E-01  0.000000E+00
  6.584530E-01  2.626030E-02  5.000000E-01  6.651026E-01  2.648988E-02  0.000000E+00  7.455711E-03 -1.001062E-04  4.430369E-20  2.836218E-01  0.000000E+00
  6.776550E-01  2.596781E-02  5.000000E-01  6.844985E-01  2.619444E-02  0.000000E+00  7.417899E-03 -1.290693E-04  3.313353E-19  2.831928E-01  0.000000E+00
  6.963720E-01  2.560232E-02  5.000000E-01  7.034045E-01  2.582525E-02  0.000000E+00  7.379271E-03 -1.641985E-04  6.339443E-19  2.842814E-01  0.000000E+00
  7.145680E-01  2.514754E-02  5.000000E-01  7.217843E-01  2.536588E-02  0.000000E+00  7.354548E-03 -2.069519E-04  8.499812E-19  2.856537E-01  0.000000E+00
  7.322140E-01  2.459475E-02  5.000000E-01  7.396085E-01  2.480750E-02  0.000000E+00  7.348561E-03 -2.552300E-04  9.204159E-20  2.861816E-01  0.000000E+00
  7.492860E-01  2.394356E-02  5.000000E-01  7.568529E-01  2.414974E-02  0.000000E+00  7.361154E-03 -3.064607E-04 -1.917994E-19  2.856995E-01  0.000000E+00
  7.657630E-01  2.320017E-02  5.000000E-01  7.734963E-01  2.339884E-02  0.000000E+00  7.392925E-03 -3.590440E-04  5.830635E-19  2.842262E-01  0.000000E+00
  7.816300E-01  2.237478E-02  5.000000E-01  7.895235E-01  2.256512E-02  0.000000E+00  7.448160E-03 -4.150540E-04  7.358296E-19  2.819139E-01  0.000000E+00
  7.968740E-01  2.147013E-02  5.000000E-01  8.049215E-01  2.165133E-02  0.000000E+00  7.539433E-03 -4.810631E-04 -1.554356E-19  2.795457E-01  0.000000E+00
  8.114890E-01  2.047377E-02  5.000000E-01  8.196841E-01  2.064491E-02  0.000000E+00  7.678620E-03 -5.585134E-04 -1.416701E-18  2.763463E-01  0.000000E+00
  8.254710E-01  1.939337E-02  5.000000E-01  8.338073E-01  1.955360E-02  0.000000E+00  7.860210E-03 -6.406252E-04 -1.244684E-18  2.706307E-01  0.000000E+00
  8.388180E-01  1.825006E-02  5.000000E-01  8.472891E-01  1.839874E-02  0.000000E+00  8.065930E-03 -7.205993E-04 -5.577251E-19  2.625573E-01  0.000000E+00
  8.515320E-01  1.706877E-02  5.000000E-01  8.601315E-01  1.720552E-02  0.000000E+00  8.279669E-03 -7.946601E-04 -3.817635E-19  2.531398E-01  0.000000E+00
  8.636180E-01  1.587283E-02  5.000000E-01  8.723395E-01  1.599750E-02  0.000000E+00  8.492040E-03 -8.614117E-04 -1.552295E-19  2.430950E-01  0.000000E+00
  8.750810E-01  1.468227E-02  5.000000E-01  8.839183E-01  1.479492E-02  0.000000E+00  8.697814E-03 -9.207042E-04 -3.044173E-20  2.327574E-01  0.000000E+00
  8.859290E-01  1.351284E-02  5.000000E-01  8.948758E-01  1.361368E-02  0.000000E+00  8.894141E-03 -9.730567E-04  7.072229E-20  2.223766E-01  0.000000E+00
  8.961710E-01  1.237627E-02  5.000000E-01  9.052213E-01  1.246563E-02  0.000000E+00  9.080167E-03 -1.019257E-03  7.438848E-19  2.121331E-01  0.000000E+00
  9.058170E-01  1.128141E-02  5.000000E-01  9.149647E-01  1.135971E-02  0.000000E+00  9.256314E-03 -1.060119E-03  1.951757E-19  2.021209E-01  0.000000E+00
  9.148770E-01  1.023465E-02  5.000000E-01  9.241162E-01  1.030238E-02  0.000000E+00  9.423382E-03 -1.096300E-03 -3.501681E-19  1.923726E-01  0.000000E+00
  9.148770E-01  1.023465E-02  5.000000E-01  9.241162E-01  1.030238E-02  0.000000E+00  9.423382E-03 -1.096300E-03 -3.501681E-19  1.923726E-01  0.000000E+00
  9.233640E-01  9.240593E-03  5.000000E-01  9.326889E-01  9.298289E-03  0.000000E+00  9.582389E-03 -1.128510E-03  4.538573E-19  1.829343E-01  0.000000E+00
  9.312880E-01  8.302390E-03  5.000000E-01  9.406929E-01  8.350612E-03  0.000000E+00  9.734762E-03 -1.157477E-03  2.275574E-19  1.738456E-01  0.000000E+00
  9.386620E-01  7.421975E-03  5.000000E-01  9.481414E-01  7.461305E-03  0.000000E+00  9.881963E-03 -1.183823E-03 -7.303511E-19  1.650986E-01  0.000000E+00
  9.454960E-01  6.600569E-03  5.000000E-01  9.550444E-01  6.631604E-03  0.000000E+00  1.002500E-02 -1.207970E-03 -1.141073E-18  1.566643E-01  0.000000E+00
  9.518040E-01  5.838608E-03  5.000000E-01  9.614161E-01  5.861949E-03  0.000000E+00  1.016500E-02 -1.230384E-03 -8.765371E-19  1.485539E-01  0.000000E+00
  9.575950E-01  5.136239E-03  5.000000E-01  9.672656E-01  5.152487E-03  0.000000E+00  1.030402E-02 -1.251628E-03 -8.317531E-19  1.407617E-01  0.000000E+00
  9.628810E-01  4.493184E-03  5.000000E-01  9.726049E-01  4.502937E-03  0.000000E+00  1.044585E-02 -1.272352E-03 -1.029089E-18  1.332631E-01  0.000000E+00
  9.676710E-01  3.909015E-03  5.000000E-01  9.774433E-01  3.912868E-03  0.000000E+00  1.059717E-02 -1.293569E-03 -7.251799E-19  1.260593E-01  0.000000E+00
  9.719750E-01  3.383150E-03  5.000000E-01  9.817908E-01  3.381693E-03  0.000000E+00  1.076673E-02 -1.316411E-03 -1.008510E-18  1.191518E-01  0.000000E+00
  9.758020E-01  2.914915E-03  5.000000E-01  9.856564E-01  2.908729E-03  0.000000E+00  1.095797E-02 -1.341409E-03 -2.698615E-18  1.125564E-01  0.000000E+00
  9.791590E-01  2.503676E-03  5.000000E-01  9.890473E-01  2.493338E-03  0.000000E+00  1.114885E-02 -1.366160E-03 -3.887329E-18  1.061498E-01  0.000000E+00
  9.820540E-01  2.148756E-03  5.000000E-01  9.919716E-01  2.134834E-03  0.000000E+00  1.127263E-02 -1.383483E-03  4.664357E-18  1.002901E-01  0.000000E+00
  9.844930E-01  1.849567E-03  5.000000E-01  9.944352E-01  1.832623E-03  0.000000E+00  1.120527E-02 -1.375038E-03  3.182293E-17  9.586200E-02  0.000000E+00
  9.864820E-01  1.605538E-03  5.000000E-01  9.964443E-01  1.586129E-03  0.000000E+00  1.063802E-02 -1.294393E-03  5.616043E-17  8.925378E-02  0.000000E+00
  9.880240E-01  1.416253E-03  5.000000E-01  9.980019E-01  1.394933E-03  0.000000E+00  9.093283E-03 -1.124984E-03 -3.836041E-17  7.471691E-02  0.000000E+00
  9.891220E-01  1.281316E-03  5.000000E-01  9.991109E-01  1.258634E-03  0.000000E+00  8.361192E-03 -1.139431E-03 -5.243469E-16  9.134011E-02  0.000000E+00
  9.897810E-01  1.200449E-03  5.000000E-01  9.997766E-01  1.176950E-03  0.000000E+00  1.557963E-02 -7.240808E-04 -1.578487E-15  1.836658E-01  0.000000E+00
  9.900000E-01  1.173525E-03  5.000000E-01  9.999978E-01  1.149754E-03  0.000000E+00  1.301169E-02 -1.764973E-03 -2.044032E-15 -5.552424E-02  0.000000E+00
  9.900000E-01  1.359746E-03  5.000000E-01  9.999978E-01  1.337855E-03  0.000000E+00  1.202602E-03 -1.365872E-02 -1.287958E-15 -1.969156E-01  0.000000E+00
  9.900000E-01  1.545957E-03  5.000000E-01  9.999978E-01  1.525946E-03  0.000000E+00 -7.331296E-04 -1.440636E-02 -3.416093E-16 -1.821933E-02  0.000000E+00
  9.900000E-01  1.732177E-03  5.000000E-01  9.999978E-01  1.714047E-03  0.000000E+00 -4.554827E-04  3.074760E-03  4.404316E-16 -2.774783E-02  0.000000E+00
  9.900000E-01  1.918398E-03  5.000000E-01  9.999978E-01  1.902149E-03  0.000000E+00  7.912963E-04  3.264177E-03  1.584261E-15 -1.484184E-01  0.000000E+00
  9.900000E-01  2.104618E-03  5.000000E-01  9.999978E-01  2.090250E-03  0.000000E+00  7.981604E-03 -4.587170E-03  2.411431E-15 -5.255393E-02  0.000000E+00
  9.900000E-01  2.104618E-03  5.000000E-01  9.999978E-01  2.090250E-03  0.000000E+00  7.981604E-03 -4.587170E-03  2.411431E-15 -5.255393E-02  0.000000E+00
  9.897920E-01  2.149039E-03  5.000000E-01  9.997877E-01  2.135119E-03  0.000000E+00  8.772608E-03 -2.685154E-03  1.726174E-15  8.726159E-02  0.000000E+00
  9.891660E-01  2.282256E-03  5.000000E-01  9.991554E-01  2.269681E-03  0.000000E+00  3.185088E-03 -5.905380E-04  5.616969E-16  1.710334E-02  0.000000E+00
  9.881230E-01  2.504106E-03  5.000000E-01  9.981019E-01  2.493772E-03  0.000000E+00  3.031304E-03 -6.400732E-04  4.814989E-17  4.767516E-03  0.000000E+00
  9.866580E-01  2.814376E-03  5.000000E-01  9.966221E-01  2.807176E-03  0.000000E+00  3.605570E-03 -7.703285E-04 -5.597785E-17  1.094232E-02  0.000000E+00
  9.847700E-01  3.212694E-03  5.000000E-01  9.947150E-01  3.209515E-03  0.000000E+00  3.764855E-03 -7.919896E-04 -3.650379E-17  9.002415E-03  0.000000E+00
  9.824550E-01  3.698615E-03  5.000000E-01  9.923766E-01  3.700344E-03  0.000000E+00  3.819189E-03 -7.981326E-04 -1.157352E-17  3.548053E-03  0.000000E+00
  9.797070E-01  4.271568E-03  5.000000E-01  9.896009E-01  4.279083E-03  0.000000E+00  3.905037E-03 -8.112408E-04 -1.976906E-18 -2.561570E-03  0.000000E+00
  9.765220E-01  4.930860E-03  5.000000E-01  9.863837E-01  4.945033E-03  0.000000E+00  4.033068E-03 -8.312542E-04 -1.259096E-19 -9.669738E-03  0.000000E+00
  9.728930E-01  5.675684E-03  5.000000E-01  9.827181E-01  5.697379E-03  0.000000E+00  4.201702E-03 -8.581158E-04 -1.608593E-19 -1.787736E-02  0.000000E+00
  9.688130E-01  6.505076E-03  5.000000E-01  9.785969E-01  6.535147E-03  0.000000E+00  4.405221E-03 -8.905564E-04 -7.331142E-19 -2.702332E-02  0.000000E+00
  9.642740E-01  7.417957E-03  5.000000E-01  9.740120E-01  7.457247E-03  0.000000E+00  4.634569E-03 -9.264455E-04 -3.678776E-19 -3.695129E-02  0.000000E+00
  9.592670E-01  8.413099E-03  5.000000E-01  9.689544E-01  8.462438E-03  0.000000E+00  4.881766E-03 -9.640206E-04  9.084897E-19 -4.760929E-02  0.000000E+00
  9.537850E-01  9.489107E-03  5.000000E-01  9.634171E-01  9.549313E-03  0.000000E+00  5.141302E-03 -1.001913E-03  1.387842E-18 -5.886385E-02  0.000000E+00
  9.478160E-01  1.064443E-02  5.000000E-01  9.573878E-01  1.071630E-02  0.000000E+00  5.409004E-03 -1.039138E-03  1.129509E-18 -7.063410E-02  0.000000E+00
  9.413520E-01  1.187743E-02  5.000000E-01  9.508585E-01  1.196176E-02  0.000000E+00  5.681955E-03 -1.075043E-03  4.330728E-19 -8.284175E-02  0.000000E+00
  9.343800E-01  1.318637E-02  5.000000E-01  9.438161E-01  1.328391E-02  0.000000E+00  5.957671E-03 -1.109098E-03 -1.146769E-18 -9.538249E-02  0.000000E+00
  9.268920E-01  1.456910E-02  5.000000E-01  9.362525E-01  1.468061E-02  0.000000E+00  6.233973E-03 -1.140893E-03 -1.592476E-18 -1.082073E-01  0.000000E+00
  9.188750E-01  1.602373E-02  5.000000E-01  9.281545E-01  1.614993E-02  0.000000E+00  6.509025E-03 -1.170092E-03 -7.725806E-19 -1.212226E-01  0.000000E+00
  9.103190E-01  1.754804E-02  5.000000E-01  9.195121E-01  1.768963E-02  0.000000E+00  6.781057E-03 -1.196485E-03  4.076066E-19 -1.343796E-01  0.000000E+00
  9.012130E-01  1.913981E-02  5.000000E-01  9.103142E-01  1.929748E-02  0.000000E+00  7.048622E-03 -1.219857E-03 -5.355822E-19 -1.476105E-01  0.000000E+00
  8.915460E-01  2.079661E-02  5.000000E-01  9.005495E-01  2.097101E-02  0.000000E+00  7.310553E-03 -1.240163E-03 -2.218378E-18 -1.608890E-01  0.000000E+00
  8.813080E-01  2.251612E-02  5.000000E-01  8.902082E-01  2.270788E-02  0.000000E+00  7.566212E-03 -1.257465E-03 -1.692858E-18 -1.741895E-01  0.000000E+00
  8.704900E-01  2.429564E-02  5.000000E-01  8.792809E-01  2.450538E-02  0.000000E+00  7.815263E-03 -1.271834E-03 -6.278121E-19 -1.874743E-01  0.000000E+00
  8.704900E-01  2.429564E-02  5.000000E-01  8.792809E-01  2.450538E-02  0.000000E+00  7.815263E-03 -1.271834E-03 -6.278121E-19 -1.874743E-01  0.000000E+00
  8.590830E-01  2.613255E-02  5.000000E-01  8.677587E-01  2.636083E-02  0.000000E+00  8.057841E-03 -1.283611E-03  1.529433E-18 -2.007791E-01  0.000000E+00
  8.470810E-01  2.802424E-02  5.000000E-01  8.556355E-01  2.827163E-02  0.000000E+00  8.295225E-03 -1.293153E-03  1.858654E-18 -2.141832E-01  0.000000E+00
  8.344780E-01  2.996782E-02  5.000000E-01  8.429052E-01  3.023483E-02  0.000000E+00  8.529699E-03 -1.300601E-03  7.420183E-20 -2.277470E-01  0.000000E+00
  8.212700E-01  3.195941E-02  5.000000E-01  8.295638E-01  3.224654E-02  0.000000E+00  8.764105E-03 -1.305863E-03 -1.538869E-18 -2.415745E-01  0.000000E+00
  8.074550E-01  3.399367E-02  5.000000E-01  8.156093E-01  3.430134E-02  0.000000E+00  9.001556E-03 -1.308445E-03 -9.809500E-19 -2.557553E-01  0.000000E+00
  7.930350E-01  3.606297E-02  5.000000E-01  8.010437E-01  3.639154E-02  0.000000E+00  9.243393E-03 -1.307052E-03  3.522724E-19 -2.700705E-01  0.000000E+00
  7.780130E-01  3.815651E-02  5.000000E-01  7.858700E-01  3.850622E-02  0.000000E+00  9.485642E-03 -1.299920E-03  2.163140E-20 -2.839767E-01  0.000000E+00
  7.623950E-01  4.026145E-02  5.000000E-01  7.700943E-01  4.063242E-02  0.000000E+00  9.718924E-03 -1.286455E-03 -5.951503E-19 -2.971668E-01  0.000000E+00
  7.461930E-01  4.236777E-02  5.000000E-01  7.537287E-01  4.276002E-02  0.000000E+00  9.932721E-03 -1.267280E-03 -9.375566E-19 -3.094723E-01  0.000000E+00
  7.294180E-01  4.446830E-02  5.000000E-01  7.367842E-01  4.488175E-02  0.000000E+00  1.011748E-02 -1.243860E-03 -1.788650E-19 -3.205840E-01  0.000000E+00
  7.120900E-01  4.656016E-02  5.000000E-01  7.192813E-01  4.699474E-02  0.000000E+00  1.026516E-02 -1.218806E-03  8.009265E-19 -3.303144E-01  0.000000E+00
  6.942280E-01  4.864650E-02  5.000000E-01  7.012389E-01  4.910215E-02  0.000000E+00  1.037324E-02 -1.196386E-03  1.393984E-18 -3.392447E-01  0.000000E+00
  6.758590E-01  5.073832E-02  5.000000E-01  6.826844E-01  5.121509E-02  0.000000E+00  1.045333E-02 -1.182175E-03  2.264870E-18 -3.493855E-01  0.000000E+00
  6.570120E-01  5.285385E-02  5.000000E-01  6.636470E-01  5.335199E-02  0.000000E+00  1.053633E-02 -1.178632E-03  1.825835E-18 -3.628763E-01  0.000000E+00
  6.377220E-01  5.500391E-02  5.000000E-01  6.441622E-01  5.552376E-02  0.000000E+00  1.065936E-02 -1.180358E-03  5.507526E-20 -3.796260E-01  0.000000E+00
  6.180260E-01  5.717111E-02  5.000000E-01  6.242673E-01  5.771285E-02  0.000000E+00  1.084400E-02 -1.180495E-03  1.148488E-19 -3.988388E-01  0.000000E+00
  5.979670E-01  5.933122E-02  5.000000E-01  6.040058E-01  5.989478E-02  0.000000E+00  1.109417E-02 -1.176071E-03  1.280149E-18 -4.204654E-01  0.000000E+00
  5.775910E-01  6.145724E-02  5.000000E-01  5.834240E-01  6.204227E-02  0.000000E+00  1.140281E-02 -1.163810E-03  2.064996E-18 -4.436065E-01  0.000000E+00
  5.569470E-01  6.351902E-02  5.000000E-01  5.625715E-01  6.412487E-02  0.000000E+00  1.174943E-02 -1.139086E-03  2.818603E-19 -4.662801E-01  0.000000E+00
  5.360860E-01  6.548293E-02  5.000000E-01  5.414998E-01  6.610861E-02  0.000000E+00  1.210262E-02 -1.101820E-03 -2.134909E-18 -4.875978E-01  0.000000E+00
  5.150640E-01  6.733320E-02  5.000000E-01  5.202655E-01  6.797757E-02  0.000000E+00  1.243678E-02 -1.057153E-03 -2.299406E-18 -5.082998E-01  0.000000E+00
  4.939370E-01  6.906686E-02  5.000000E-01  4.989252E-01  6.972873E-02  0.000000E+00  1.274380E-02 -1.008383E-03 -1.785476E-18 -5.289235E-01  0.000000E+00
  4.727610E-01  7.068184E-02  5.000000E-01  4.775353E-01  7.136002E-02  0.000000E+00  1.302854E-02 -9.565215E-04 -8.103640E-19 -5.499607E-01  0.000000E+00
  5.770140E-06 -7.690678E-05  5.000000E-01  5.829536E-06 -1.133061E-04  0.000000E+00  1.256372E-03 -5.946881E-03 -6.369495E-13  9.365370E-01  0.000000E+00
  9.104010E-05 -4.091689E-04  5.000000E-01  9.196062E-05 -4.489236E-04  0.000000E+00  1.382399E-02 -2.198092E-02 -5.531288E-13  9.897013E-01  0.000000E+00
  4.796980E-04 -9.263486E-04  5.000000E-01  4.845435E-04 -9.713263E-04  0.000000E+00  3.130738E-02 -2.770851E-02 -3.717864E-13  7.479283E-01  0.000000E+00
  1.456590E-03 -1.531616E-03  5.000000E-01  1.471301E-03 -1.582706E-03  0.000000E+00  3.741555E-02 -1.871450E-02 -1.817350E-13  4.326587E-01  0.000000E+00
  3.096410E-03 -2.127500E-03  5.000000E-01  3.127681E-03 -2.184608E-03  0.000000E+00  3.291120E-02 -1.034473E-02 -5.674896E-14  2.908170E-01  0.000000E+00
  5.335170E-03 -2.692220E-03  5.000000E-01  5.389050E-03 -2.755031E-03  0.000000E+00  2.747250E-02 -6.118761E-03 -2.766030E-15  2.452842E-01  0.000000E+00
  8.129670E-03 -3.219710E-03  5.000000E-01  8.211771E-03 -3.287848E-03  0.000000E+00  2.373721E-02 -3.958459E-03  9.368519E-15  2.056715E-01  0.000000E+00
  1.145600E-02 -3.691726E-03  5.000000E-01  1.157169E-02 -3.764631E-03  0.000000E+00  2.073202E-02 -2.446262E-03  6.659193E-15  1.577985E-01  0.000000E+00
  1.529970E-02 -4.040383E-03  5.000000E-01  1.545421E-02 -4.116809E-03  0.000000E+00  1.744707E-02 -1.109442E-03  2.514545E-15  1.084760E-01  0.000000E+00
  1.962420E-02 -4.170474E-03  5.000000E-01  1.982238E-02 -4.248213E-03  0.000000E+00  1.394325E-02 -1.656545E-04  3.879341E-16  8.843673E-02  0.000000E+00
  2.439810E-02 -4.102414E-03  5.000000E-01  2.464449E-02 -4.179466E-03  0.000000E+00  1.148980E-02  1.572773E-04 -1.807000E-16  1.303054E-01  0.000000E+00
  2.966100E-02 -4.030313E-03  5.000000E-01  2.996054E-02 -4.106637E-03  0.000000E+00  1.094049E-02  9.909696E-05 -1.622369E-16  1.870054E-01  0.000000E+00
  3.543640E-02 -4.018913E-03  5.000000E-01  3.579427E-02 -4.095122E-03  0.000000E+00  1.156851E-02 -1.404864E-05 -6.046557E-17  1.982994E-01  0.000000E+00
  4.172970E-02 -4.048250E-03  5.000000E-01  4.215112E-02 -4.124756E-03  0.000000E+00  1.225604E-02 -5.765478E-05 -6.500858E-18  1.783654E-01  0.000000E+00
  4.854440E-02 -4.077931E-03  5.000000E-01  4.903464E-02 -4.154736E-03  0.000000E+00  1.254301E-02 -5.916376E-06  6.323546E-18  1.537150E-01  0.000000E+00
  5.588220E-02 -4.051318E-03  5.000000E-01  5.644654E-02 -4.127854E-03  0.000000E+00  1.248106E-02  1.014016E-04  4.775588E-18  1.359946E-01  0.000000E+00
  6.375220E-02 -3.949560E-03  5.000000E-01  6.439602E-02 -4.025069E-03  0.000000E+00  1.229418E-02  2.000106E-04  2.207215E-18  1.286442E-01  0.000000E+00
  7.217040E-02 -3.783376E-03  5.000000E-01  7.289924E-02 -3.857206E-03  0.000000E+00  1.216476E-02  2.636464E-04  1.222433E-18  1.272066E-01  0.000000E+00
  8.115500E-02 -3.571930E-03  5.000000E-01  8.197457E-02 -3.643625E-03  0.000000E+00  1.213921E-02  3.064256E-04  4.904849E-19  1.249734E-01  0.000000E+00
  9.072040E-02 -3.315503E-03  5.000000E-01  9.163657E-02 -3.384608E-03  0.000000E+00  1.216155E-02  3.525040E-04 -1.057228E-19  1.186883E-01  0.000000E+00
  1.008780E-01 -2.999129E-03  5.000000E-01  1.018967E-01 -3.065040E-03  0.000000E+00  1.216509E-02  4.115243E-04  3.471156E-19  1.105046E-01  0.000000E+00
  1.116380E-01 -2.605725E-03  5.000000E-01  1.127654E-01 -2.667662E-03  0.000000E+00  1.211333E-02  4.839212E-04  1.183536E-18  1.030342E-01  0.000000E+00
  1.230100E-01 -2.112540E-03  5.000000E-01  1.242523E-01 -2.169497E-03  0.000000E+00  1.198145E-02  5.688488E-04  1.233041E-18  9.715765E-02  0.000000E+00
  1.350030E-01 -1.493193E-03  5.000000E-01  1.363664E-01 -1.543895E-03  0.000000E+00  1.174352E-02  6.629817E-04  6.762364E-19  9.365685E-02  0.000000E+00
  1.350030E-01 -1.493193E-03  5.000000E-01  1.363664E-01 -1.543895E-03  0.000000E+00  1.174352E-02  6.629817E-04  6.762364E-19  9.365685E-02  0.000000E+00
  1.476220E-01 -7.185056E-04  5.000000E-01  1.491128E-01 -7.613843E-04  0.000000E+00  1.138120E-02  7.601609E-04  3.690584E-19  9.372284E-02  0.000000E+00
  1.608730E-01  2.410456E-04  5.000000E-01  1.624976E-01  2.078572E-04  0.000000E+00  1.089840E-02  8.517629E-04  4.896684E-19  9.872812E-02  0.000000E+00
  1.747560E-01  1.410142E-03  5.000000E-01  1.765208E-01  1.388760E-03  0.000000E+00  1.032978E-02  9.266304E-04  4.052039E-19  1.095757E-01  0.000000E+00
  1.892730E-01  2.796688E-03  5.000000E-01  1.911844E-01  2.789308E-03  0.000000E+00  9.739760E-03  9.696948E-04  5.316767E-20  1.264074E-01  0.000000E+00
  2.044180E-01  4.371718E-03  5.000000E-01  2.064824E-01  4.380244E-03  0.000000E+00  9.220328E-03  9.653320E-04  2.987238E-19  1.499887E-01  0.000000E+00
  2.201880E-01  6.036338E-03  5.000000E-01  2.224116E-01  6.061675E-03  0.000000E+00  8.845349E-03  9.197622E-04  9.503887E-19  1.762995E-01  0.000000E+00
  2.365750E-01  7.710312E-03  5.000000E-01  2.389641E-01  7.752554E-03  0.000000E+00  8.611363E-03  8.590174E-04 -1.424144E-20  1.972417E-01  0.000000E+00
  2.535710E-01  9.361546E-03  5.000000E-01  2.561318E-01  9.420464E-03  0.000000E+00  8.466643E-03  7.981865E-04 -7.326746E-19  2.113207E-01  0.000000E+00
  2.711570E-01  1.096873E-02  5.000000E-01  2.738954E-01  1.104388E-02  0.000000E+00  8.372014E-03  7.393095E-04 -3.896081E-19  2.217112E-01  0.000000E+00
  2.893100E-01  1.251627E-02  5.000000E-01  2.922317E-01  1.260705E-02  0.000000E+00  8.310571E-03  6.825679E-04 -1.062765E-18  2.302187E-01  0.000000E+00
  3.080020E-01  1.399280E-02  5.000000E-01  3.111125E-01  1.409849E-02  0.000000E+00  8.268591E-03  6.302926E-04 -1.238869E-18  2.367494E-01  0.000000E+00
  3.271950E-01  1.540171E-02  5.000000E-01  3.304993E-01  1.552163E-02  0.000000E+00  8.228138E-03  5.846233E-04 -1.230548E-18  2.412434E-01  0.000000E+00
  3.468470E-01  1.675161E-02  5.000000E-01  3.503497E-01  1.688516E-02  0.000000E+00  8.176051E-03  5.441224E-04 -1.367942E-18  2.449245E-01  0.000000E+00
  3.669110E-01  1.804414E-02  5.000000E-01  3.706164E-01  1.819074E-02  0.000000E+00  8.107460E-03  5.068045E-04 -1.043570E-18  2.486807E-01  0.000000E+00
  3.873360E-01  1.928139E-02  5.000000E-01  3.912476E-01  1.944049E-02  0.000000E+00  8.020236E-03  4.719475E-04 -5.513919E-19  2.525183E-01  0.000000E+00
  4.080670E-01  2.046499E-02  5.000000E-01  4.121880E-01  2.063604E-02  0.000000E+00  7.914147E-03  4.384140E-04 -4.868830E-20  2.566548E-01  0.000000E+00
  4.290470E-01  2.159112E-02  5.000000E-01  4.333799E-01  2.177354E-02  0.000000E+00  7.792661E-03  4.051022E-04 -3.737414E-19  2.612358E-01  0.000000E+00
  4.502140E-01  2.265500E-02  5.000000E-01  4.547606E-01  2.284817E-02  0.000000E+00  7.663879E-03  3.703384E-04 -7.143382E-19  2.663112E-01  0.000000E+00
  4.715070E-01  2.364234E-02  5.000000E-01  4.762687E-01  2.384548E-02  0.000000E+00  7.541629E-03  3.314571E-04 -4.188656E-19  2.720434E-01  0.000000E+00
  4.928620E-01  2.452864E-02  5.000000E-01  4.978393E-01  2.474073E-02  0.000000E+00  7.441733E-03  2.870046E-04 -6.666488E-20  2.779643E-01  0.000000E+00
  5.142140E-01  2.528842E-02  5.000000E-01  5.194069E-01  2.550818E-02  0.000000E+00  7.376236E-03  2.365400E-04  5.828315E-20  2.832835E-01  0.000000E+00
  5.355000E-01  2.589574E-02  5.000000E-01  5.409079E-01  2.612163E-02  0.000000E+00  7.351333E-03  1.799053E-04 -3.743974E-19  2.875801E-01  0.000000E+00
  5.566560E-01  2.632772E-02  5.000000E-01  5.622776E-01  2.655797E-02  0.000000E+00  7.364935E-03  1.195338E-04 -5.229246E-19  2.903487E-01  0.000000E+00
  4.727610E-01  7.068184E-02  5.000000E-01  4.775353E-01  7.136002E-02  0.000000E+00  1.302854E-02 -9.565215E-04 -8.103640E-19 -5.499607E-01  0.000000E+00
  4.515970E-01  7.217644E-02  5.000000E-01  4.561576E-01  7.286972E-02  0.000000E+00  1.330411E-02 -9.023502E-04  1.334454E-21 -5.722728E-01  0.000000E+00
  4.305020E-01  7.354923E-02  5.000000E-01  4.348496E-01  7.425636E-02  0.000000E+00  1.358857E-02 -8.451151E-04  4.486768E-19 -5.965085E-01  0.000000E+00
  4.095340E-01  7.479399E-02  5.000000E-01  4.136698E-01  7.551370E-02  0.000000E+00  1.389949E-02 -7.823357E-04  2.744295E-19 -6.230622E-01  0.000000E+00
  3.887520E-01  7.590090E-02  5.000000E-01  3.926779E-01  7.663179E-02  0.000000E+00  1.425088E-02 -7.108869E-04 -8.988875E-19 -6.523292E-01  0.000000E+00
  3.682080E-01  7.685777E-02  5.000000E-01  3.719265E-01  7.759832E-02  0.000000E+00  1.465277E-02 -6.264116E-04 -3.966315E-19 -6.843371E-01  0.000000E+00
  3.479570E-01  7.764817E-02  5.000000E-01  3.514710E-01  7.839670E-02  0.000000E+00  1.510954E-02 -5.235913E-04  5.041103E-19 -7.186814E-01  0.000000E+00
  3.280470E-01  7.825356E-02  5.000000E-01  3.313599E-01  7.900821E-02  0.000000E+00  1.561996E-02 -3.985036E-04 -4.764620E-21 -7.551462E-01  0.000000E+00
  3.085240E-01  7.865911E-02  5.000000E-01  3.116397E-01  7.941785E-02  0.000000E+00  1.618155E-02 -2.479706E-04 -3.575012E-19 -7.935885E-01  0.000000E+00
  2.894320E-01  7.885166E-02  5.000000E-01  2.923549E-01  7.961234E-02  0.000000E+00  1.679257E-02 -6.683029E-05 -7.295110E-19 -8.337794E-01  0.000000E+00
  2.708110E-01  7.881672E-02  5.000000E-01  2.735459E-01  7.957705E-02  0.000000E+00  1.745598E-02  1.511160E-04 -8.414119E-19 -8.769689E-01  0.000000E+00
  2.526960E-01  7.854047E-02  5.000000E-01  2.552479E-01  7.929801E-02  0.000000E+00  1.819619E-02  4.137536E-04 -8.537381E-19 -9.264953E-01  0.000000E+00
  2.351200E-01  7.801256E-02  5.000000E-01  2.374944E-01  7.876478E-02  0.000000E+00  1.906299E-02  7.470094E-04 -1.639370E-18 -9.819118E-01  0.000000E+00
  2.181120E-01  7.719846E-02  5.000000E-01  2.203147E-01  7.794245E-02  0.000000E+00  2.007760E-02  1.195452E-03 -3.033553E-18 -1.035560E+00  0.000000E+00
  2.017010E-01  7.604081E-02  5.000000E-01  2.037379E-01  7.677310E-02  0.000000E+00  2.118226E-02  1.776509E-03 -3.506044E-18 -1.082284E+00  0.000000E+00
  1.859190E-01  7.451703E-02  5.000000E-01  1.877966E-01  7.523394E-02  0.000000E+00  2.229216E-02  2.477712E-03 -2.312249E-18 -1.121836E+00  0.000000E+00
  1.707920E-01  7.262495E-02  5.000000E-01  1.725168E-01  7.332275E-02  0.000000E+00  2.335088E-02  3.297751E-03 -1.502688E-18 -1.151264E+00  0.000000E+00
  1.563470E-01  7.036200E-02  5.000000E-01  1.579259E-01  7.103695E-02  0.000000E+00  2.430710E-02  4.239518E-03 -2.621607E-18 -1.165149E+00  0.000000E+00
  1.426070E-01  6.773105E-02  5.000000E-01  1.440472E-01  6.837943E-02  0.000000E+00  2.509309E-02  5.282539E-03 -3.658661E-18 -1.159179E+00  0.000000E+00
  1.295900E-01  6.475024E-02  5.000000E-01  1.308987E-01  6.536852E-02  0.000000E+00  2.563901E-02  6.378352E-03 -4.147213E-18 -1.131717E+00  0.000000E+00
  1.173060E-01  6.145578E-02  5.000000E-01  1.184907E-01  6.204079E-02  0.000000E+00  2.589782E-02  7.468398E-03 -4.502775E-18 -1.083152E+00  0.000000E+00
  1.057600E-01  5.789481E-02  5.000000E-01  1.068281E-01  5.844385E-02  0.000000E+00  2.585619E-02  8.499426E-03 -2.477448E-18 -1.015211E+00  0.000000E+00
  9.495290E-02  5.412182E-02  5.000000E-01  9.591181E-02  5.463276E-02  0.000000E+00  2.553518E-02  9.426722E-03  1.012163E-18 -9.312918E-01  0.000000E+00
  8.487680E-02  5.019687E-02  5.000000E-01  8.573396E-02  5.066817E-02  0.000000E+00  2.498382E-02  1.022262E-02  4.826507E-18 -8.345572E-01  0.000000E+00
  8.487680E-02  5.019687E-02  5.000000E-01  8.573396E-02  5.066817E-02  0.000000E+00  2.498382E-02  1.022262E-02  4.826507E-18 -8.345572E-01  0.000000E+00
  7.552090E-02  4.618110E-02  5.000000E-01  7.628357E-02  4.661185E-02  0.000000E+00  2.424830E-02  1.087109E-02  1.120144E-17 -7.261398E-01  0.000000E+00
  6.687020E-02  4.213326E-02  5.000000E-01  6.754551E-02  4.252313E-02  0.000000E+00  2.335061E-02  1.133726E-02  1.417705E-17 -6.088390E-01  0.000000E+00
  5.889940E-02  3.811784E-02  5.000000E-01  5.949421E-02  3.846716E-02  0.000000E+00  2.232508E-02  1.158206E-02  1.013284E-17 -4.900414E-01  0.000000E+00
  5.157140E-02  3.420072E-02  5.000000E-01  5.209221E-02  3.451048E-02  0.000000E+00  2.126531E-02  1.162932E-02  6.221279E-18 -3.783184E-01  0.000000E+00
  4.484650E-02  3.043594E-02  5.000000E-01  4.529940E-02  3.070769E-02  0.000000E+00  2.031471E-02  1.159865E-02  6.693416E-18 -2.781470E-01  0.000000E+00
  3.869820E-02  2.685432E-02  5.000000E-01  3.908901E-02  2.708990E-02  0.000000E+00  1.961145E-02  1.165679E-02  8.442221E-19 -1.885875E-01  0.000000E+00
  3.311550E-02  2.346744E-02  5.000000E-01  3.344993E-02  2.366881E-02  0.000000E+00  1.921901E-02  1.192312E-02 -1.947949E-17 -1.042087E-01  0.000000E+00
  2.809130E-02  2.028234E-02  5.000000E-01  2.837499E-02  2.045155E-02  0.000000E+00  1.898626E-02  1.235764E-02 -5.283844E-17 -9.074020E-03  0.000000E+00
  2.362330E-02  1.730249E-02  5.000000E-01  2.386187E-02  1.744160E-02  0.000000E+00  1.850103E-02  1.259371E-02 -1.121601E-16  1.073185E-01  0.000000E+00
  1.966610E-02  1.455251E-02  5.000000E-01  1.986471E-02  1.466385E-02  0.000000E+00  1.752762E-02  1.213183E-02 -1.803742E-16  2.182502E-01  0.000000E+00
  1.609460E-02  1.208805E-02  5.000000E-01  1.625714E-02  1.217450E-02  0.000000E+00  1.638579E-02  1.107106E-02 -8.637147E-17  2.952315E-01  0.000000E+00
  1.282740E-02  9.929254E-03  5.000000E-01  1.295694E-02  9.993905E-03  0.000000E+00  1.567868E-02  1.013607E-02  6.699915E-16  3.403579E-01  0.000000E+00
  9.860990E-03  8.055420E-03  5.000000E-01  9.960575E-03  8.101147E-03  0.000000E+00  1.585512E-02  9.985880E-03  2.866397E-15  3.718851E-01  0.000000E+00
  7.251350E-03  6.418068E-03  5.000000E-01  7.324581E-03  6.447260E-03  0.000000E+00  1.704487E-02  1.089069E-02  6.427858E-15  4.047816E-01  0.000000E+00
  5.038810E-03  4.981838E-03  5.000000E-01  5.089697E-03  4.996526E-03  0.000000E+00  1.920705E-02  1.295965E-02  7.246868E-15  4.416032E-01  0.000000E+00
  3.239710E-03  3.728385E-03  5.000000E-01  3.272428E-03  3.730415E-03  0.000000E+00  2.212558E-02  1.646974E-02 -7.579419E-15  4.886730E-01  0.000000E+00
  1.861880E-03  2.647377E-03  5.000000E-01  1.880684E-03  2.638490E-03  0.000000E+00  2.474892E-02  2.156564E-02 -6.138427E-14  5.632626E-01  0.000000E+00
  9.013910E-04  1.736980E-03  5.000000E-01  9.104951E-04  1.718899E-03  0.000000E+00  2.416241E-02  2.673258E-02 -1.771629E-13  6.915154E-01  0.000000E+00
  3.295630E-04  1.005294E-03  5.000000E-01  3.328923E-04  9.798232E-04  0.000000E+00  1.694217E-02  2.609312E-02 -3.504829E-13  8.691691E-01  0.000000E+00
  7.194000E-05  4.685478E-04  5.000000E-01  7.266763E-05  4.376570E-04  0.000000E+00  6.047348E-03  1.247260E-02 -5.251409E-13  9.866954E-01  0.000000E+00
  4.516100E-06  1.435740E-04  5.000000E-01  4.562831E-06  1.094013E-04  0.000000E+00 -2.552560E-04 -5.318380E-03 -6.207111E-13  9.353705E-01  0.000000E+00
 -1.112850E-09  3.526649E-05  5.000000E-01  0.000000E+00  0.000000E+00  0.000000E+00 -1.247376E-03 -5.749620E-03 -6.427495E-13  8.529803E-01  0.000000E+00