 Title = "ADflow Slice Data"
Variables =  "CoordinateX"  "CoordinateY"  "CoordinateZ"  "XoC"  "YoC"  "ZoC" "VelocityX" "VelocityY" "VelocityZ" "CoefPressure" "Mach" 
Zone T= "Slice_0001 None Absolute Regular z = 0.50000000"
 Nodes =          192  Elements=          184  ZONETYPE=FELINESEG
 DATAPACKING=POINT
  5.566560E-01  4.672932E-02  5.000000E-01  5.622780E-01  4.701066E-02  0.000000E+00  5.605944E-04 -7.475122E-05 -3.251799E-19  5.583822E-01  0.000000E+00
  5.776220E-01  4.423944E-02  5.000000E-01  5.834557E-01  4.449564E-02  0.000000E+00  2.133549E-03 -4.181113E-04 -5.677128E-19  5.616572E-01  0.000000E+00
  5.983370E-01  3.951618E-02  5.000000E-01  6.043799E-01  3.972468E-02  0.000000E+00  4.118028E-03 -1.111735E-03  1.929774E-18  5.307029E-01  0.000000E+00
  6.187480E-01  3.349700E-02  5.000000E-01  6.249971E-01  3.364470E-02  0.000000E+00  6.311277E-03 -1.958952E-03  1.219743E-18  4.640528E-01  0.000000E+00
  6.388030E-01  2.705249E-02  5.000000E-01  6.452546E-01  2.713511E-02  0.000000E+00  8.483639E-03 -2.667544E-03 -1.052424E-18  3.656549E-01  0.000000E+00
  6.584530E-01  2.096688E-02  5.000000E-01  6.651031E-01  2.098804E-02  0.000000E+00  1.035227E-02 -2.970397E-03 -7.351854E-19  2.429268E-01  0.000000E+00
  6.776550E-01  1.583132E-02  5.000000E-01  6.844990E-01  1.580061E-02  0.000000E+00  1.168521E-02 -2.859362E-03  3.852653E-19  1.281841E-01  0.000000E+00
  6.963720E-01  1.165638E-02  5.000000E-01  7.034050E-01  1.158350E-02  0.000000E+00  1.248434E-02 -2.557037E-03  3.348840E-18  5.275279E-02  0.000000E+00
  7.145680E-01  8.251213E-03  5.000000E-01  7.217848E-01  8.143947E-03  0.000000E+00  1.293616E-02 -2.241930E-03  2.734842E-18  1.044952E-02  0.000000E+00
  7.322140E-01  5.428225E-03  5.000000E-01  7.396090E-01  5.292448E-03  0.000000E+00  1.323370E-02 -1.987229E-03  1.742616E-18 -1.712542E-02  0.000000E+00
  7.492860E-01  3.026592E-03  5.000000E-01  7.568534E-01  2.866560E-03  0.000000E+00  1.351396E-02 -1.813090E-03  3.089276E-18 -4.054716E-02  0.000000E+00
  7.657630E-01  9.208493E-04  5.000000E-01  7.734969E-01  7.395501E-04  0.000000E+00  1.386270E-02 -1.716243E-03  3.453364E-18 -6.335675E-02  0.000000E+00
  7.816300E-01 -9.806952E-04  5.000000E-01  7.895241E-01 -1.181199E-03  0.000000E+00  1.429505E-02 -1.655367E-03  2.024377E-18 -8.858517E-02  0.000000E+00
  7.968740E-01 -2.689580E-03  5.000000E-01  8.049221E-01 -2.907343E-03  0.000000E+00  1.470591E-02 -1.533780E-03  5.319821E-19 -1.231054E-01  0.000000E+00
  8.114890E-01 -4.104960E-03  5.000000E-01  8.196847E-01 -4.337017E-03  0.000000E+00  1.493748E-02 -1.300216E-03 -8.199391E-20 -1.623867E-01  0.000000E+00
  8.254710E-01 -5.183068E-03  5.000000E-01  8.338079E-01 -5.426014E-03  0.000000E+00  1.492687E-02 -9.973305E-04  1.019355E-18 -1.922391E-01  0.000000E+00
  8.388180E-01 -5.934111E-03  5.000000E-01  8.472897E-01 -6.184642E-03  0.000000E+00  1.471754E-02 -6.817029E-04  1.341629E-18 -2.083385E-01  0.000000E+00
  8.515320E-01 -6.393765E-03  5.000000E-01  8.601321E-01 -6.648938E-03  0.000000E+00  1.437865E-02 -3.880186E-04 -9.709479E-19 -2.140084E-01  0.000000E+00
  8.636180E-01 -6.606463E-03  5.000000E-01  8.723402E-01 -6.863785E-03  0.000000E+00  1.396100E-02 -1.308032E-04 -3.055445E-18 -2.130308E-01  0.000000E+00
  8.750810E-01 -6.616642E-03  5.000000E-01  8.839189E-01 -6.874067E-03  0.000000E+00  1.349861E-02  8.638135E-05 -2.564962E-18 -2.074812E-01  0.000000E+00
  8.859290E-01 -6.465312E-03  5.000000E-01  8.948765E-01 -6.721208E-03  0.000000E+00  1.301831E-02  2.649012E-04 -8.057810E-19 -1.985270E-01  0.000000E+00
  8.961710E-01 -6.188910E-03  5.000000E-01  9.052219E-01 -6.442014E-03  0.000000E+00  1.254077E-02  4.087534E-04 -7.398422E-19 -1.872563E-01  0.000000E+00
  9.058170E-01 -5.818408E-03  5.000000E-01  9.149653E-01 -6.067771E-03  0.000000E+00  1.207886E-02  5.231450E-04 -4.970073E-20 -1.746303E-01  0.000000E+00
  9.148770E-01 -5.379987E-03  5.000000E-01  9.241168E-01 -5.624921E-03  0.000000E+00  1.163844E-02  6.133103E-04  7.784321E-19 -1.613486E-01  0.000000E+00
  9.148770E-01 -5.379987E-03  5.000000E-01  9.241168E-01 -5.624921E-03  0.000000E+00  1.163844E-02  6.133103E-04  7.784321E-19 -1.613486E-01  0.000000E+00
  9.233640E-01 -4.894866E-03  5.000000E-01  9.326896E-01 -5.134901E-03  0.000000E+00  1.122143E-02  6.836523E-04 -2.536521E-21 -1.478218E-01  0.000000E+00
  9.312880E-01 -4.381200E-03  5.000000E-01  9.406936E-01 -4.616047E-03  0.000000E+00  1.082828E-02  7.377545E-04  7.540750E-19 -1.343099E-01  0.000000E+00
  9.386620E-01 -3.853533E-03  5.000000E-01  9.481421E-01 -4.083051E-03  0.000000E+00  1.045871E-02  7.786751E-04  1.289241E-18 -1.210287E-01  0.000000E+00
  9.454960E-01 -3.324276E-03  5.000000E-01  9.550451E-01 -3.548449E-03  0.000000E+00  1.011153E-02  8.089440E-04 -4.250883E-20 -1.081634E-01  0.000000E+00
  9.518040E-01 -2.802953E-03  5.000000E-01  9.614168E-01 -3.021861E-03  0.000000E+00  9.785388E-03  8.305050E-04 -4.436015E-19 -9.581540E-02  0.000000E+00
  9.575950E-01 -2.298129E-03  5.000000E-01  9.672663E-01 -2.511938E-03  0.000000E+00  9.480055E-03  8.450253E-04  1.229683E-19 -8.403465E-02  0.000000E+00
  9.628810E-01 -1.816243E-03  5.000000E-01  9.726057E-01 -2.025186E-03  0.000000E+00  9.196735E-03  8.540838E-04  4.440263E-19 -7.290308E-02  0.000000E+00
  9.676710E-01 -1.362987E-03  5.000000E-01  9.774440E-01 -1.567352E-03  0.000000E+00  8.937563E-03  8.590678E-04  7.673676E-19 -6.248620E-02  0.000000E+00
  9.719750E-01 -9.426949E-04  5.000000E-01  9.817915E-01 -1.142815E-03  0.000000E+00  8.703620E-03  8.611284E-04  7.116661E-19 -5.283297E-02  0.000000E+00
  9.758020E-01 -5.589509E-04  5.000000E-01  9.856572E-01 -7.551955E-04  0.000000E+00  8.490259E-03  8.606814E-04  7.161273E-19 -4.388888E-02  0.000000E+00
  9.791590E-01 -2.148567E-04  5.000000E-01  9.890481E-01 -4.076260E-04  0.000000E+00  8.274685E-03  8.560766E-04  3.066957E-18 -3.576329E-02  0.000000E+00
  9.820540E-01  8.741896E-05  5.000000E-01  9.919723E-01 -1.022975E-04  0.000000E+00  8.005974E-03  8.413946E-04  1.239179E-17 -2.843534E-02  0.000000E+00
  9.844930E-01  3.459761E-04  5.000000E-01  9.944359E-01  1.588709E-04  0.000000E+00  7.620687E-03  8.109986E-04  3.410207E-17 -2.104851E-02  0.000000E+00
  9.864820E-01  5.594824E-04  5.000000E-01  9.964450E-01  3.745335E-04  0.000000E+00  6.989650E-03  7.619347E-04  4.828351E-17 -1.529904E-02  0.000000E+00
  9.880240E-01  7.265417E-04  5.000000E-01  9.980026E-01  5.432801E-04  0.000000E+00  5.793179E-03  6.322714E-04 -4.746519E-17 -1.940621E-02  0.000000E+00
  9.891220E-01  8.462026E-04  5.000000E-01  9.991117E-01  6.641494E-04  0.000000E+00  5.150732E-03  4.569400E-04 -4.892548E-16 -9.228823E-03  0.000000E+00
  9.897810E-01  9.184801E-04  5.000000E-01  9.997773E-01  7.371569E-04  0.000000E+00  1.088022E-02  1.991636E-03 -1.416533E-15  7.567102E-02  0.000000E+00
  9.900000E-01  9.425052E-04  5.000000E-01  9.999986E-01  7.614247E-04  0.000000E+00  9.586939E-03  9.568692E-04 -1.803822E-15 -8.069377E-02  0.000000E+00
  9.900000E-01  1.128725E-03  5.000000E-01  9.999986E-01  9.495254E-04  0.000000E+00  9.097462E-04 -1.050356E-02 -1.114046E-15 -1.813652E-01  0.000000E+00
  9.900000E-01  1.314935E-03  5.000000E-01  9.999986E-01  1.137616E-03  0.000000E+00 -5.400546E-04 -1.383374E-02 -2.458479E-16 -4.861544E-02  0.000000E+00
  9.900000E-01  1.501155E-03  5.000000E-01  9.999986E-01  1.325717E-03  0.000000E+00 -1.881843E-04 -4.280844E-03  4.230354E-16 -5.891131E-02  0.000000E+00
  9.900000E-01  1.687375E-03  5.000000E-01  9.999986E-01  1.513818E-03  0.000000E+00  4.052460E-04 -2.989523E-03  1.081611E-15 -1.093490E-01  0.000000E+00
  9.900000E-01  1.873595E-03  5.000000E-01  9.999986E-01  1.701918E-03  0.000000E+00  2.422738E-03 -3.382061E-03  1.378392E-15 -4.385356E-02  0.000000E+00
  9.900000E-01  1.873595E-03  5.000000E-01  9.999986E-01  1.701918E-03  0.000000E+00  2.422738E-03 -3.382061E-03  1.378392E-15 -4.385356E-02  0.000000E+00
  9.897920E-01  1.870296E-03  5.000000E-01  9.997885E-01  1.698586E-03  0.000000E+00  1.101956E-03 -4.714735E-04  9.135938E-16  2.728909E-02  0.000000E+00
  9.891660E-01  1.860206E-03  5.000000E-01  9.991561E-01  1.688394E-03  0.000000E+00 -2.081828E-03  1.684573E-05  3.026190E-16 -1.305778E-02  0.000000E+00
  9.881230E-01  1.844336E-03  5.000000E-01  9.981026E-01  1.672363E-03  0.000000E+00 -2.356711E-03 -2.941381E-05  3.330817E-17 -2.775145E-02  0.000000E+00
  9.866580E-01  1.822910E-03  5.000000E-01  9.966228E-01  1.650721E-03  0.000000E+00 -2.176295E-03 -3.392065E-05 -2.642550E-17 -2.882788E-02  0.000000E+00
  9.847700E-01  1.797571E-03  5.000000E-01  9.947157E-01  1.625126E-03  0.000000E+00 -2.250918E-03 -2.917163E-05 -1.986712E-17 -3.184002E-02  0.000000E+00
  9.824550E-01  1.769893E-03  5.000000E-01  9.923774E-01  1.597168E-03  0.000000E+00 -2.423914E-03 -2.652338E-05 -7.232808E-18 -3.715808E-02  0.000000E+00
  9.797070E-01  1.741598E-03  5.000000E-01  9.896016E-01  1.568587E-03  0.000000E+00 -2.584978E-03 -2.373301E-05 -1.382813E-18 -4.292170E-02  0.000000E+00
  9.765220E-01  1.715506E-03  5.000000E-01  9.863844E-01  1.542233E-03  0.000000E+00 -2.724031E-03 -1.902035E-05  1.452050E-19 -4.898862E-02  0.000000E+00
  9.728930E-01  1.694484E-03  5.000000E-01  9.827188E-01  1.520998E-03  0.000000E+00 -2.849197E-03 -1.251625E-05  4.390739E-19 -5.562734E-02  0.000000E+00
  9.688130E-01  1.682131E-03  5.000000E-01  9.785976E-01  1.508521E-03  0.000000E+00 -2.965797E-03 -4.220129E-06  1.833867E-19 -6.293013E-02  0.000000E+00
  9.642740E-01  1.682700E-03  5.000000E-01  9.740127E-01  1.509095E-03  0.000000E+00 -3.077670E-03  5.973220E-06 -1.836448E-19 -7.088411E-02  0.000000E+00
  9.592670E-01  1.701157E-03  5.000000E-01  9.689552E-01  1.527738E-03  0.000000E+00 -3.187747E-03  1.840066E-05 -3.078431E-19 -7.948685E-02  0.000000E+00
  9.537850E-01  1.743917E-03  5.000000E-01  9.634178E-01  1.570930E-03  0.000000E+00 -3.296567E-03  3.329898E-05 -1.290049E-18 -8.880451E-02  0.000000E+00
  9.478160E-01  1.817507E-03  5.000000E-01  9.573885E-01  1.645263E-03  0.000000E+00 -3.402656E-03  5.091454E-05 -2.089844E-18 -9.881596E-02  0.000000E+00
  9.413520E-01  1.930735E-03  5.000000E-01  9.508592E-01  1.759635E-03  0.000000E+00 -3.503546E-03  7.157425E-05 -9.431595E-19 -1.095023E-01  0.000000E+00
  9.343800E-01  2.092965E-03  5.000000E-01  9.438168E-01  1.923504E-03  0.000000E+00 -3.595420E-03  9.555163E-05 -1.845736E-19 -1.208463E-01  0.000000E+00
  9.268920E-01  2.316115E-03  5.000000E-01  9.362532E-01  2.148907E-03  0.000000E+00 -3.673542E-03  1.230364E-04 -8.818156E-19 -1.327392E-01  0.000000E+00
  9.188750E-01  2.613660E-03  5.000000E-01  9.281552E-01  2.449457E-03  0.000000E+00 -3.732468E-03  1.540597E-04 -1.323597E-18 -1.450685E-01  0.000000E+00
  9.103190E-01  3.001934E-03  5.000000E-01  9.195128E-01  2.841653E-03  0.000000E+00 -3.765902E-03  1.885263E-04 -8.047937E-19 -1.576650E-01  0.000000E+00
  9.012130E-01  3.500162E-03  5.000000E-01  9.103148E-01  3.344913E-03  0.000000E+00 -3.766975E-03  2.259224E-04 -4.015489E-19 -1.703176E-01  0.000000E+00
  8.915460E-01  4.130967E-03  5.000000E-01  9.005502E-01  3.982088E-03  0.000000E+00 -3.728887E-03  2.654719E-04 -7.243860E-19 -1.827631E-01  0.000000E+00
  8.813080E-01  4.921510E-03  5.000000E-01  8.902088E-01  4.780616E-03  0.000000E+00 -3.646240E-03  3.059709E-04  6.920293E-19 -1.946694E-01  0.000000E+00
  8.704900E-01  5.903552E-03  5.000000E-01  8.792816E-01  5.772576E-03  0.000000E+00 -3.516512E-03  3.456649E-04  1.786666E-18 -2.056920E-01  0.000000E+00
  8.704900E-01  5.903552E-03  5.000000E-01  8.792816E-01  5.772576E-03  0.000000E+00 -3.516512E-03  3.456649E-04  1.786666E-18 -2.056920E-01  0.000000E+00
  8.590830E-01  7.114382E-03  5.000000E-01  8.677593E-01  6.995635E-03  0.000000E+00 -3.340239E-03  3.828145E-04  1.652663E-18 -2.156587E-01  0.000000E+00
  8.470810E-01  8.597438E-03  5.000000E-01  8.556361E-01  8.493668E-03  0.000000E+00 -3.123108E-03  4.153075E-04  1.074379E-18 -2.242534E-01  0.000000E+00
  8.344780E-01  1.040052E-02  5.000000E-01  8.429059E-01  1.031496E-02  0.000000E+00 -2.878846E-03  4.412814E-04 -3.245174E-19 -2.311590E-01  0.000000E+00
  8.212700E-01  1.257193E-02  5.000000E-01  8.295645E-01  1.250830E-02  0.000000E+00 -2.627636E-03  4.600322E-04  9.528971E-19 -2.364343E-01  0.000000E+00
  8.074550E-01  1.515172E-02  5.000000E-01  8.156099E-01  1.511414E-02  0.000000E+00 -2.392821E-03  4.714424E-04  2.292876E-18 -2.403057E-01  0.000000E+00
  7.930350E-01  1.815481E-02  5.000000E-01  8.010443E-01  1.814757E-02  0.000000E+00 -2.196334E-03  4.755751E-04  5.598200E-19 -2.434262E-01  0.000000E+00
  7.780130E-01  2.154375E-02  5.000000E-01  7.858706E-01  2.157073E-02  0.000000E+00 -2.053332E-03  4.752545E-04 -1.783455E-18 -2.466365E-01  0.000000E+00
  7.623950E-01  2.525425E-02  5.000000E-01  7.700948E-01  2.531871E-02  0.000000E+00 -1.973687E-03  4.824634E-04 -1.222259E-18 -2.498215E-01  0.000000E+00
  7.461930E-01  2.932944E-02  5.000000E-01  7.537292E-01  2.943505E-02  0.000000E+00 -1.963038E-03  5.113555E-04  2.444970E-19 -2.532881E-01  0.000000E+00
  7.294180E-01  3.384888E-02  5.000000E-01  7.367848E-01  3.400014E-02  0.000000E+00 -2.020624E-03  5.674008E-04  2.474789E-20 -2.569952E-01  0.000000E+00
  7.120900E-01  3.890384E-02  5.000000E-01  7.192818E-01  3.910615E-02  0.000000E+00 -2.137095E-03  6.525065E-04 -1.097704E-18 -2.604759E-01  0.000000E+00
  6.942280E-01  4.459053E-02  5.000000E-01  7.012394E-01  4.485028E-02  0.000000E+00 -2.293503E-03  7.671692E-04 -1.597408E-18 -2.631019E-01  0.000000E+00
  6.758590E-01  5.099607E-02  5.000000E-01  6.826849E-01  5.132050E-02  0.000000E+00 -2.474578E-03  9.079208E-04 -1.287857E-18 -2.618345E-01  0.000000E+00
  6.570120E-01  5.817903E-02  5.000000E-01  6.636475E-01  5.857601E-02  0.000000E+00 -2.652844E-03  1.048568E-03 -1.342997E-18 -2.601906E-01  0.000000E+00
  6.377220E-01  6.600078E-02  5.000000E-01  6.441627E-01  6.647676E-02  0.000000E+00 -2.666673E-03  1.073909E-03  1.950845E-18 -2.858838E-01  0.000000E+00
  6.180260E-01  7.390109E-02  5.000000E-01  6.242678E-01  7.445686E-02  0.000000E+00 -1.975244E-03  7.516619E-04  4.116192E-18 -3.978581E-01  0.000000E+00
  5.979670E-01  8.119691E-02  5.000000E-01  6.040062E-01  8.182636E-02  0.000000E+00  4.967881E-04 -1.148338E-04  9.952698E-18 -6.449547E-01  0.000000E+00
  5.775910E-01  8.714681E-02  5.000000E-01  5.834244E-01  8.783635E-02  0.000000E+00  5.838839E-03 -1.193503E-03  2.118161E-17 -9.660074E-01  0.000000E+00
  5.569470E-01  9.096533E-02  5.000000E-01  5.625719E-01  9.169344E-02  0.000000E+00  1.359805E-02 -1.243263E-03  2.655531E-17 -1.166458E+00  0.000000E+00
  5.360860E-01  9.192141E-02  5.000000E-01  5.415002E-01  9.265918E-02  0.000000E+00  2.078164E-02  5.401481E-04  1.774788E-17 -1.128094E+00  0.000000E+00
  5.150640E-01  9.024789E-02  5.000000E-01  5.202659E-01  9.096876E-02  0.000000E+00  2.415825E-02  2.925497E-03  3.449286E-19 -9.244143E-01  0.000000E+00
  4.939370E-01  8.683851E-02  5.000000E-01  4.989255E-01  8.752494E-02  0.000000E+00  2.317223E-02  4.140262E-03 -4.440804E-18 -6.629623E-01  0.000000E+00
  4.727610E-01  8.263931E-02  5.000000E-01  4.775357E-01  8.328333E-02  0.000000E+00  1.942825E-02  3.776678E-03  9.514491E-19 -4.173459E-01  0.000000E+00
  5.770140E-06  7.808491E-05  5.000000E-01  5.829540E-06 -1.117259E-04  0.000000E+00  1.669241E-03 -7.750377E-03 -3.978009E-12  9.234057E-01  0.000000E+00
  9.104010E-05 -2.388007E-04  5.000000E-01  9.196069E-05 -4.318118E-04  0.000000E+00  1.839905E-02 -2.601238E-02 -3.720111E-12  9.878346E-01  0.000000E+00
  4.796980E-04 -6.903428E-04  5.000000E-01  4.845439E-04 -8.879144E-04  0.000000E+00  4.004885E-02 -2.914040E-02 -2.608048E-12  6.699420E-01  0.000000E+00
  1.456590E-03 -1.129684E-03  5.000000E-01  1.471302E-03 -1.331692E-03  0.000000E+00  4.387077E-02 -1.481072E-02 -1.300958E-12  2.846229E-01  0.000000E+00
  3.096410E-03 -1.440352E-03  5.000000E-01  3.127683E-03 -1.645498E-03  0.000000E+00  3.398224E-02 -4.835684E-03 -4.165477E-13  1.637512E-01  0.000000E+00
  5.335170E-03 -1.605725E-03  5.000000E-01  5.389054E-03 -1.812542E-03  0.000000E+00  2.497248E-02 -1.103456E-03 -3.019753E-14  1.712554E-01  0.000000E+00
  8.129670E-03 -1.625098E-03  5.000000E-01  8.211777E-03 -1.832110E-03  0.000000E+00  1.947642E-02  2.912877E-04  5.962505E-14  1.789868E-01  0.000000E+00
  1.145600E-02 -1.486942E-03  5.000000E-01  1.157170E-02 -1.692559E-03  0.000000E+00  1.560361E-02  9.934159E-04  4.350894E-14  1.721163E-01  0.000000E+00
  1.529970E-02 -1.136399E-03  5.000000E-01  1.545422E-02 -1.338476E-03  0.000000E+00  1.202396E-02  1.375690E-03  1.629881E-14  1.643306E-01  0.000000E+00
  1.962420E-02 -5.039295E-04  5.000000E-01  1.982240E-02 -6.996184E-04  0.000000E+00  8.750529E-03  1.400859E-03  2.395051E-15  1.829229E-01  0.000000E+00
  2.439810E-02  3.700098E-04  5.000000E-01  2.464451E-02  1.831473E-04  0.000000E+00  6.703028E-03  1.207949E-03 -1.224484E-15  2.475665E-01  0.000000E+00
  2.966100E-02  1.301743E-03  5.000000E-01  2.996056E-02  1.124290E-03  0.000000E+00  6.319712E-03  1.074557E-03 -1.047869E-15  3.166401E-01  0.000000E+00
  3.543640E-02  2.224864E-03  5.000000E-01  3.579429E-02  2.056735E-03  0.000000E+00  6.864550E-03  1.048792E-03 -3.901428E-16  3.465380E-01  0.000000E+00
  4.172970E-02  3.143326E-03  5.000000E-01  4.215115E-02  2.984473E-03  0.000000E+00  7.421466E-03  1.045420E-03 -5.774640E-17  3.525231E-01  0.000000E+00
  4.854440E-02  4.074380E-03  5.000000E-01  4.903468E-02  3.924930E-03  0.000000E+00  7.654775E-03  1.027888E-03  2.422886E-17  3.555472E-01  0.000000E+00
  5.588220E-02  5.044444E-03  5.000000E-01  5.644659E-02  4.904791E-03  0.000000E+00  7.626364E-03  9.876951E-04  1.900969E-17  3.626239E-01  0.000000E+00
  6.375220E-02  6.043750E-03  5.000000E-01  6.439607E-02  5.914190E-03  0.000000E+00  7.506793E-03  9.181033E-04  5.584235E-18  3.747990E-01  0.000000E+00
  7.217040E-02  7.033688E-03  5.000000E-01  7.289929E-02  6.914126E-03  0.000000E+00  7.430564E-03  8.219725E-04  8.853771E-19  3.886000E-01  0.000000E+00
  8.115500E-02  7.963742E-03  5.000000E-01  8.197463E-02  7.853572E-03  0.000000E+00  7.446516E-03  7.086109E-04  1.461191E-19  3.995687E-01  0.000000E+00
  9.072040E-02  8.793384E-03  5.000000E-01  9.163664E-02  8.691594E-03  0.000000E+00  7.546288E-03  5.849038E-04 -1.695158E-20  4.054163E-01  0.000000E+00
  1.008780E-01  9.488604E-03  5.000000E-01  1.018968E-01  9.393835E-03  0.000000E+00  7.724047E-03  4.505291E-04 -8.907656E-19  4.069164E-01  0.000000E+00
  1.116380E-01  1.001092E-02  5.000000E-01  1.127655E-01  9.921429E-03  0.000000E+00  8.002602E-03  3.016601E-04 -1.540056E-18  4.046330E-01  0.000000E+00
  1.230100E-01  1.032143E-02  5.000000E-01  1.242523E-01  1.023507E-02  0.000000E+00  8.418395E-03  1.333102E-04 -1.096644E-18  3.976425E-01  0.000000E+00
  1.350030E-01  1.038172E-02  5.000000E-01  1.363665E-01  1.029597E-02  0.000000E+00  9.001940E-03 -6.040829E-05 -7.532506E-19  3.845744E-01  0.000000E+00
  1.350030E-01  1.038172E-02  5.000000E-01  1.363665E-01  1.029597E-02  0.000000E+00  9.001940E-03 -6.040829E-05 -7.532506E-19  3.845744E-01  0.000000E+00
  1.476220E-01  1.015961E-02  5.000000E-01  1.491129E-01  1.007162E-02  0.000000E+00  9.759301E-03 -2.819136E-04 -2.870394E-19  3.636320E-01  0.000000E+00
  1.608730E-01  9.639142E-03  5.000000E-01  1.624977E-01  9.545894E-03  0.000000E+00  1.065015E-02 -5.199525E-04  1.132739E-18  3.328300E-01  0.000000E+00
  1.747560E-01  8.839712E-03  5.000000E-01  1.765210E-01  8.738390E-03  0.000000E+00  1.157585E-02 -7.331732E-04  2.372729E-18  2.915283E-01  0.000000E+00
  1.892730E-01  7.843341E-03  5.000000E-01  1.911846E-01  7.731956E-03  0.000000E+00  1.237799E-02 -8.352335E-04  1.391127E-18  2.401876E-01  0.000000E+00
  2.044180E-01  6.833858E-03  5.000000E-01  2.064825E-01  6.712277E-03  0.000000E+00  1.284191E-02 -7.248340E-04 -1.600303E-18  1.786995E-01  0.000000E+00
  2.201880E-01  6.099232E-03  5.000000E-01  2.224118E-01  5.970232E-03  0.000000E+00  1.281576E-02 -4.168212E-04 -2.327710E-18  1.201737E-01  0.000000E+00
  2.365750E-01  5.808983E-03  5.000000E-01  2.389643E-01  5.677052E-03  0.000000E+00  1.236847E-02 -5.356382E-05 -7.938307E-19  8.613626E-02  0.000000E+00
  2.535710E-01  5.979253E-03  5.000000E-01  2.561320E-01  5.849042E-03  0.000000E+00  1.171997E-02  2.609230E-04 -8.789530E-20  7.812316E-02  0.000000E+00
  2.711570E-01  6.597654E-03  5.000000E-01  2.738956E-01  6.473688E-03  0.000000E+00  1.108474E-02  4.990994E-04 -9.962295E-19  8.530131E-02  0.000000E+00
  2.893100E-01  7.602901E-03  5.000000E-01  2.922319E-01  7.489088E-03  0.000000E+00  1.063403E-02  6.527456E-04 -2.142239E-18  1.012527E-01  0.000000E+00
  3.080020E-01  8.865852E-03  5.000000E-01  3.111127E-01  8.764794E-03  0.000000E+00  1.047999E-02  7.152190E-04 -1.009746E-18  1.216193E-01  0.000000E+00
  3.271950E-01  1.019370E-02  5.000000E-01  3.304995E-01  1.010605E-02  0.000000E+00  1.061645E-02  6.930945E-04  4.263660E-19  1.424484E-01  0.000000E+00
  3.468470E-01  1.139816E-02  5.000000E-01  3.503500E-01  1.132267E-02  0.000000E+00  1.079326E-02  6.686955E-04  1.305241E-18  1.490488E-01  0.000000E+00
  3.669110E-01  1.264161E-02  5.000000E-01  3.706166E-01  1.257868E-02  0.000000E+00  1.054538E-02  7.400904E-04  2.598391E-18  1.351483E-01  0.000000E+00
  3.873360E-01  1.425266E-02  5.000000E-01  3.912479E-01  1.420601E-02  0.000000E+00  9.492928E-03  8.944933E-04  2.739461E-18  1.222704E-01  0.000000E+00
  4.080670E-01  1.658972E-02  5.000000E-01  4.121883E-01  1.656667E-02  0.000000E+00  7.576806E-03  1.019008E-03  3.119140E-18  1.309640E-01  0.000000E+00
  4.290470E-01  2.002739E-02  5.000000E-01  4.333802E-01  2.003906E-02  0.000000E+00  5.064673E-03  9.537749E-04  3.373199E-18  1.645767E-01  0.000000E+00
  4.502140E-01  2.492510E-02  5.000000E-01  4.547610E-01  2.498624E-02  0.000000E+00  2.497277E-03  6.067850E-04  1.269459E-18  2.338539E-01  0.000000E+00
  4.715070E-01  3.099179E-02  5.000000E-01  4.762690E-01  3.111420E-02  0.000000E+00  4.955967E-04  1.410646E-04  3.374786E-18  3.397728E-01  0.000000E+00
  4.928620E-01  3.723653E-02  5.000000E-01  4.978397E-01  3.742201E-02  0.000000E+00 -6.087298E-04 -1.543307E-04  4.719440E-18  4.403541E-01  0.000000E+00
  5.142140E-01  4.261852E-02  5.000000E-01  5.194073E-01  4.285835E-02  0.000000E+00 -8.702628E-04 -1.824767E-04  7.590704E-19  5.027170E-01  0.000000E+00
  5.355000E-01  4.610826E-02  5.000000E-01  5.409083E-01  4.638334E-02  0.000000E+00 -4.572222E-04 -7.106725E-05 -6.794174E-19  5.363503E-01  0.000000E+00
  5.566560E-01  4.672932E-02  5.000000E-01  5.622780E-01  4.701066E-02  0.000000E+00  5.605944E-04 -7.475122E-05 -3.251799E-19  5.583822E-01  0.000000E+00
  4.727610E-01  8.263931E-02  5.000000E-01  4.775357E-01  8.328333E-02  0.000000E+00  1.942825E-02  3.776678E-03  9.514491E-19 -4.173459E-01  0.000000E+00
  4.515970E-01  7.861519E-02  5.000000E-01  4.561579E-01  7.921857E-02  0.000000E+00  1.484707E-02  2.489085E-03  4.198144E-18 -2.544924E-01  0.000000E+00
  4.305020E-01  7.570252E-02  5.000000E-01  4.348499E-01  7.627648E-02  0.000000E+00  1.084240E-02  1.187953E-03  5.053463E-18 -1.916079E-01  0.000000E+00
  4.095340E-01  7.423503E-02  5.000000E-01  4.136701E-01  7.479417E-02  0.000000E+00  8.143628E-03  3.834589E-04  3.743020E-18 -1.926736E-01  0.000000E+00
  3.887520E-01  7.387186E-02  5.000000E-01  3.926782E-01  7.442733E-02  0.000000E+00  6.883033E-03  2.085860E-06  1.746316E-18 -2.340299E-01  0.000000E+00
  3.682080E-01  7.423738E-02  5.000000E-01  3.719267E-01  7.479654E-02  0.000000E+00  6.885500E-03 -1.877899E-04  1.266628E-18 -3.065482E-01  0.000000E+00
  3.479570E-01  7.496598E-02  5.000000E-01  3.514712E-01  7.553250E-02  0.000000E+00  7.826788E-03 -2.846840E-04  9.055830E-19 -3.874981E-01  0.000000E+00
  3.280470E-01  7.571201E-02  5.000000E-01  3.313601E-01  7.628607E-02  0.000000E+00  9.233238E-03 -2.944385E-04  2.280629E-19 -4.539328E-01  0.000000E+00
  3.085240E-01  7.624734E-02  5.000000E-01  3.116400E-01  7.682680E-02  0.000000E+00  1.061812E-02 -2.479127E-04  4.031854E-20 -5.077482E-01  0.000000E+00
  2.894320E-01  7.661999E-02  5.000000E-01  2.923551E-01  7.720322E-02  0.000000E+00  1.171596E-02 -2.002291E-04  1.011474E-19 -5.615172E-01  0.000000E+00
  2.708110E-01  7.689712E-02  5.000000E-01  2.735461E-01  7.748315E-02  0.000000E+00  1.251653E-02 -1.647592E-04  1.600357E-19 -6.193355E-01  0.000000E+00
  2.526960E-01  7.710651E-02  5.000000E-01  2.552481E-01  7.769466E-02  0.000000E+00  1.315715E-02 -1.278444E-04 -1.994033E-19 -6.877779E-01  0.000000E+00
  2.351200E-01  7.724483E-02  5.000000E-01  2.374946E-01  7.783437E-02  0.000000E+00  1.386732E-02 -6.201476E-05 -1.298297E-18 -7.758686E-01  0.000000E+00
  2.181120E-01  7.726128E-02  5.000000E-01  2.203148E-01  7.785098E-02  0.000000E+00  1.491906E-02  8.192245E-05 -4.850454E-18 -8.900930E-01  0.000000E+00
  2.017010E-01  7.706854E-02  5.000000E-01  2.037381E-01  7.765630E-02  0.000000E+00  1.654297E-02  3.954105E-04 -5.908309E-18 -1.024108E+00  0.000000E+00
  1.859190E-01  7.652079E-02  5.000000E-01  1.877967E-01  7.710301E-02  0.000000E+00  1.877657E-02  1.002885E-03 -1.578908E-18 -1.155819E+00  0.000000E+00
  1.707920E-01  7.546696E-02  5.000000E-01  1.725169E-01  7.603854E-02  0.000000E+00  2.137394E-02  1.978584E-03  7.244994E-19 -1.264245E+00  0.000000E+00
  1.563470E-01  7.383916E-02  5.000000E-01  1.579260E-01  7.439430E-02  0.000000E+00  2.392578E-02  3.296980E-03 -2.364890E-18 -1.336578E+00  0.000000E+00
  1.426070E-01  7.163548E-02  5.000000E-01  1.440473E-01  7.216836E-02  0.000000E+00  2.604229E-02  4.847155E-03 -5.203399E-18 -1.366099E+00  0.000000E+00
  1.295900E-01  6.890121E-02  5.000000E-01  1.308988E-01  6.940649E-02  0.000000E+00  2.747508E-02  6.467222E-03 -6.341246E-18 -1.353784E+00  0.000000E+00
  1.173060E-01  6.571097E-02  5.000000E-01  1.184907E-01  6.618402E-02  0.000000E+00  2.816684E-02  8.005548E-03 -5.402334E-18 -1.305607E+00  0.000000E+00
  1.057600E-01  6.215030E-02  5.000000E-01  1.068281E-01  6.258739E-02  0.000000E+00  2.820812E-02  9.363303E-03  1.772290E-19 -1.229351E+00  0.000000E+00
  9.495290E-02  5.830672E-02  5.000000E-01  9.591188E-02  5.870499E-02  0.000000E+00  2.775879E-02  1.049593E-02  4.333514E-18 -1.133304E+00  0.000000E+00
  8.487680E-02  5.426546E-02  5.000000E-01  8.573402E-02  5.462292E-02  0.000000E+00  2.698581E-02  1.140253E-02  8.402437E-18 -1.023969E+00  0.000000E+00
  8.487680E-02  5.426546E-02  5.000000E-01  8.573402E-02  5.462292E-02  0.000000E+00  2.698581E-02  1.140253E-02  8.402437E-18 -1.023969E+00  0.000000E+00
  7.552090E-02  5.010551E-02  5.000000E-01  7.628363E-02  5.042095E-02  0.000000E+00  2.601416E-02  1.210193E-02  1.352530E-17 -9.045349E-01  0.000000E+00
  6.687020E-02  4.589716E-02  5.000000E-01  6.754556E-02  4.617010E-02  0.000000E+00  2.490960E-02  1.259241E-02  1.511560E-17 -7.784849E-01  0.000000E+00
  5.889940E-02  4.170954E-02  5.000000E-01  5.949426E-02  4.194019E-02  0.000000E+00  2.372191E-02  1.286030E-02  1.326591E-17 -6.526448E-01  0.000000E+00
  5.157140E-02  3.760784E-02  5.000000E-01  5.209225E-02  3.779707E-02  0.000000E+00  2.253959E-02  1.294218E-02  1.190637E-17 -5.346381E-01  0.000000E+00
  4.484650E-02  3.364408E-02  5.000000E-01  4.529943E-02  3.379327E-02  0.000000E+00  2.149233E-02  1.295931E-02  1.477385E-17 -4.284035E-01  0.000000E+00
  3.869820E-02  2.984984E-02  5.000000E-01  3.908904E-02  2.996071E-02  0.000000E+00  2.070644E-02  1.307725E-02  9.427396E-18 -3.327980E-01  0.000000E+00
  3.311550E-02  2.624059E-02  5.000000E-01  3.344995E-02  2.631501E-02  0.000000E+00  2.023920E-02  1.341732E-02 -2.533588E-17 -2.420488E-01  0.000000E+00
  2.809130E-02  2.282762E-02  5.000000E-01  2.837501E-02  2.286757E-02  0.000000E+00  1.994761E-02  1.394435E-02 -1.290378E-16 -1.404730E-01  0.000000E+00
  2.362330E-02  1.961942E-02  5.000000E-01  2.386189E-02  1.962697E-02  0.000000E+00  1.944932E-02  1.430259E-02 -3.884385E-16 -1.774462E-02  0.000000E+00
  1.966610E-02  1.663883E-02  5.000000E-01  1.986472E-02  1.661627E-02  0.000000E+00  1.852842E-02  1.400040E-02 -7.635515E-16  1.010890E-01  0.000000E+00
  1.609460E-02  1.392832E-02  5.000000E-01  1.625715E-02  1.387839E-02  0.000000E+00  1.748019E-02  1.311866E-02 -5.442214E-16  1.882731E-01  0.000000E+00
  1.282740E-02  1.150415E-02  5.000000E-01  1.295695E-02  1.142974E-02  0.000000E+00  1.684950E-02  1.235875E-02  2.538805E-15  2.451008E-01  0.000000E+00
  9.860990E-03  9.354770E-03  5.000000E-01  9.960583E-03  9.258650E-03  0.000000E+00  1.701694E-02  1.238267E-02  1.239471E-14  2.893673E-01  0.000000E+00
  7.251350E-03  7.449724E-03  5.000000E-01  7.324586E-03  7.334363E-03  0.000000E+00  1.805487E-02  1.346559E-02  3.003907E-14  3.359838E-01  0.000000E+00
  5.038810E-03  5.768047E-03  5.000000E-01  5.089701E-03  5.635703E-03  0.000000E+00  1.986411E-02  1.568094E-02  3.906849E-14  3.879396E-01  0.000000E+00
  3.239710E-03  4.301338E-03  5.000000E-01  3.272431E-03  4.154181E-03  0.000000E+00  2.216222E-02  1.918869E-02 -1.865494E-14  4.513060E-01  0.000000E+00
  1.861880E-03  3.047551E-03  5.000000E-01  1.880685E-03  2.887730E-03  0.000000E+00  2.394503E-02  2.390480E-02 -2.566682E-13  5.409728E-01  0.000000E+00
  9.013910E-04  2.011077E-03  5.000000E-01  9.104958E-04  1.840788E-03  0.000000E+00  2.270511E-02  2.809545E-02 -8.007223E-13  6.781032E-01  0.000000E+00
  3.295630E-04  1.201980E-03  5.000000E-01  3.328926E-04  1.023520E-03  0.000000E+00  1.559820E-02  2.607650E-02 -1.660570E-12  8.571883E-01  0.000000E+00
  7.194000E-05  6.303028E-04  5.000000E-01  7.266769E-05  4.460691E-04  0.000000E+00  5.329550E-03  1.107785E-02 -2.600932E-12  9.753189E-01  0.000000E+00
  4.516100E-06  2.970476E-04  5.000000E-01  4.562835E-06  1.094482E-04  0.000000E+00 -5.386261E-04 -7.951291E-03 -3.250047E-12  9.204828E-01  0.000000E+00
 -1.112850E-09  1.886937E-04  5.000000E-01  0.000000E+00  0.000000E+00  0.000000E+00 -1.476446E-03 -7.660033E-03 -3.649974E-12  8.250215E-01  0.000000E+00