 Title = "ADflow Slice Data"
Variables =  "CoordinateX"  "CoordinateY"  "CoordinateZ"  "XoC"  "YoC"  "ZoC" "VelocityX" "VelocityY" "VelocityZ" "CoefPressure" "Mach" 
Zone T= "Slice_0001 None Absolute Regular z = 0.50000000"
 Nodes =          192  Elements=          184  ZONETYPE=FELINESEG
 DATAPACKING=POINT
  5.566560E-01  3.002223E-02  5.000000E-01  5.622776E-01  3.026520E-02  0.000000E+00  7.399422E-03  1.909045E-05 -6.634365E-19  3.024573E-01  0.000000E+00
  5.776220E-01  3.000107E-02  5.000000E-01  5.834553E-01  3.024383E-02  0.000000E+00  7.428904E-03 -3.355624E-05 -1.428101E-18  3.014003E-01  0.000000E+00
  5.983370E-01  2.983507E-02  5.000000E-01  6.043795E-01  3.007616E-02  0.000000E+00  7.467244E-03 -8.510704E-05 -9.753249E-19  2.996001E-01  0.000000E+00
  6.187480E-01  2.953373E-02  5.000000E-01  6.249967E-01  2.977177E-02  0.000000E+00  7.512487E-03 -1.353013E-04  3.326394E-19  2.972055E-01  0.000000E+00
  6.388030E-01  2.910784E-02  5.000000E-01  6.452542E-01  2.934159E-02  0.000000E+00  7.562985E-03 -1.841834E-04  6.165387E-19  2.943635E-01  0.000000E+00
  6.584530E-01  2.856855E-02  5.000000E-01  6.651026E-01  2.879685E-02  0.000000E+00  7.616867E-03 -2.316446E-04  4.920604E-20  2.911844E-01  0.000000E+00
  6.776550E-01  2.792787E-02  5.000000E-01  6.844985E-01  2.814970E-02  0.000000E+00  7.670608E-03 -2.768963E-04 -3.047432E-19  2.876120E-01  0.000000E+00
  6.963720E-01  2.720131E-02  5.000000E-01  7.034046E-01  2.741580E-02  0.000000E+00  7.719305E-03 -3.194561E-04  3.505544E-20  2.837767E-01  0.000000E+00
  7.145680E-01  2.640195E-02  5.000000E-01  7.217843E-01  2.660836E-02  0.000000E+00  7.758613E-03 -3.595312E-04 -3.265570E-19  2.799497E-01  0.000000E+00
  7.322140E-01  2.554188E-02  5.000000E-01  7.396085E-01  2.573961E-02  0.000000E+00  7.785770E-03 -3.970879E-04 -8.777342E-19  2.762414E-01  0.000000E+00
  7.492860E-01  2.463280E-02  5.000000E-01  7.568529E-01  2.482135E-02  0.000000E+00  7.801344E-03 -4.318841E-04 -8.458191E-19  2.727918E-01  0.000000E+00
  7.657630E-01  2.368579E-02  5.000000E-01  7.734963E-01  2.386477E-02  0.000000E+00  7.810257E-03 -4.642883E-04 -4.108224E-19  2.694779E-01  0.000000E+00
  7.816300E-01  2.271081E-02  5.000000E-01  7.895236E-01  2.287995E-02  0.000000E+00  7.823897E-03 -4.993363E-04  1.783739E-19  2.663594E-01  0.000000E+00
  7.968740E-01  2.170295E-02  5.000000E-01  8.049215E-01  2.186191E-02  0.000000E+00  7.866956E-03 -5.484616E-04  8.778689E-19  2.644401E-01  0.000000E+00
  8.114890E-01  2.063247E-02  5.000000E-01  8.196841E-01  2.078063E-02  0.000000E+00  7.964411E-03 -6.155665E-04  1.879702E-18  2.624843E-01  0.000000E+00
  8.254710E-01  1.949489E-02  5.000000E-01  8.338073E-01  1.963155E-02  0.000000E+00  8.116258E-03 -6.921691E-04  4.311754E-19  2.578252E-01  0.000000E+00
  8.388180E-01  1.830479E-02  5.000000E-01  8.472891E-01  1.842944E-02  0.000000E+00  8.302382E-03 -7.691412E-04 -1.236916E-18  2.503436E-01  0.000000E+00
  8.515320E-01  1.708393E-02  5.000000E-01  8.601315E-01  1.719624E-02  0.000000E+00  8.503298E-03 -8.412039E-04 -7.869944E-19  2.412244E-01  0.000000E+00
  8.636180E-01  1.585424E-02  5.000000E-01  8.723396E-01  1.595414E-02  0.000000E+00  8.707286E-03 -9.061878E-04 -9.510644E-19  2.313328E-01  0.000000E+00
  8.750810E-01  1.463521E-02  5.000000E-01  8.839183E-01  1.472280E-02  0.000000E+00  8.907427E-03 -9.635246E-04 -2.238198E-19  2.210528E-01  0.000000E+00
  8.859290E-01  1.344240E-02  5.000000E-01  8.948759E-01  1.351794E-02  0.000000E+00  9.099376E-03 -1.013458E-03  1.580189E-19  2.106656E-01  0.000000E+00
  8.961710E-01  1.228746E-02  5.000000E-01  9.052213E-01  1.235133E-02  0.000000E+00  9.281073E-03 -1.056637E-03 -8.006740E-19  2.003914E-01  0.000000E+00
  9.058170E-01  1.117904E-02  5.000000E-01  9.149647E-01  1.123172E-02  0.000000E+00  9.452155E-03 -1.093858E-03 -1.565640E-18  1.903602E-01  0.000000E+00
  9.148770E-01  1.012329E-02  5.000000E-01  9.241162E-01  1.016531E-02  0.000000E+00  9.613007E-03 -1.125840E-03 -1.622786E-18  1.806276E-01  0.000000E+00
  9.148770E-01  1.012329E-02  5.000000E-01  9.241162E-01  1.016531E-02  0.000000E+00  9.613007E-03 -1.125840E-03 -1.622786E-18  1.806276E-01  0.000000E+00
  9.233640E-01  9.124420E-03  5.000000E-01  9.326889E-01  9.156354E-03  0.000000E+00  9.764452E-03 -1.153379E-03 -1.066247E-18  1.712515E-01  0.000000E+00
  9.312880E-01  8.185127E-03  5.000000E-01  9.406930E-01  8.207576E-03  0.000000E+00  9.907863E-03 -1.177292E-03 -1.763995E-18  1.622794E-01  0.000000E+00
  9.386620E-01  7.306845E-03  5.000000E-01  9.481414E-01  7.320424E-03  0.000000E+00  1.004472E-02 -1.198301E-03 -1.687921E-18  1.537059E-01  0.000000E+00
  9.454960E-01  6.490273E-03  5.000000E-01  9.550444E-01  6.495606E-03  0.000000E+00  1.017608E-02 -1.216919E-03 -7.507649E-20  1.455007E-01  0.000000E+00
  9.518040E-01  5.735310E-03  5.000000E-01  9.614161E-01  5.733018E-03  0.000000E+00  1.030314E-02 -1.233687E-03  8.565036E-19  1.376745E-01  0.000000E+00
  9.575950E-01  5.041589E-03  5.000000E-01  9.672656E-01  5.032291E-03  0.000000E+00  1.042804E-02 -1.249233E-03  9.953260E-19  1.302166E-01  0.000000E+00
  9.628810E-01  4.408331E-03  5.000000E-01  9.726050E-01  4.392638E-03  0.000000E+00  1.055465E-02 -1.264259E-03 -3.592165E-19  1.230977E-01  0.000000E+00
  9.676710E-01  3.834649E-03  5.000000E-01  9.774434E-01  3.813162E-03  0.000000E+00  1.068968E-02 -1.279803E-03 -3.595940E-18  1.163100E-01  0.000000E+00
  9.719750E-01  3.319533E-03  5.000000E-01  9.817908E-01  3.292844E-03  0.000000E+00  1.084192E-02 -1.297008E-03 -4.533784E-18  1.098462E-01  0.000000E+00
  9.758020E-01  2.861923E-03  5.000000E-01  9.856565E-01  2.830613E-03  0.000000E+00  1.101507E-02 -1.316435E-03  1.863116E-18  1.037159E-01  0.000000E+00
  9.791590E-01  2.460843E-03  5.000000E-01  9.890474E-01  2.425483E-03  0.000000E+00  1.118765E-02 -1.335825E-03  1.452974E-17  9.778375E-02  0.000000E+00
  9.820540E-01  2.115318E-03  5.000000E-01  9.919716E-01  2.076468E-03  0.000000E+00  1.129378E-02 -1.348369E-03  2.311639E-17  9.238799E-02  0.000000E+00
  9.844930E-01  1.824502E-03  5.000000E-01  9.944353E-01  1.782716E-03  0.000000E+00  1.121108E-02 -1.336443E-03  1.581738E-17  8.841053E-02  0.000000E+00
  9.864820E-01  1.587614E-03  5.000000E-01  9.964443E-01  1.543435E-03  0.000000E+00  1.063324E-02 -1.254940E-03 -1.209803E-17  8.224025E-02  0.000000E+00
  9.880240E-01  1.404059E-03  5.000000E-01  9.980019E-01  1.358026E-03  0.000000E+00  9.080460E-03 -1.088951E-03 -1.120038E-16  6.794937E-02  0.000000E+00
  9.891220E-01  1.273306E-03  5.000000E-01  9.991110E-01  1.225953E-03  0.000000E+00  8.344768E-03 -1.106741E-03 -5.129557E-16  8.460733E-02  0.000000E+00
  9.897810E-01  1.194991E-03  5.000000E-01  9.997767E-01  1.146847E-03  0.000000E+00  1.563908E-02 -6.649889E-04 -1.441236E-15  1.781149E-01  0.000000E+00
  9.900000E-01  1.168922E-03  5.000000E-01  9.999979E-01  1.120515E-03  0.000000E+00  1.309095E-02 -1.661033E-03 -1.868542E-15 -6.189879E-02  0.000000E+00
  9.900000E-01  1.355143E-03  5.000000E-01  9.999979E-01  1.308616E-03  0.000000E+00  1.212079E-03 -1.360395E-02 -1.134948E-15 -2.045419E-01  0.000000E+00
  9.900000E-01  1.541354E-03  5.000000E-01  9.999979E-01  1.496708E-03  0.000000E+00 -7.382813E-04 -1.429414E-02 -2.366431E-16 -2.462848E-02  0.000000E+00
  9.900000E-01  1.727575E-03  5.000000E-01  9.999979E-01  1.684809E-03  0.000000E+00 -4.676032E-04  3.463142E-03  4.360964E-16 -3.389488E-02  0.000000E+00
  9.900000E-01  1.913796E-03  5.000000E-01  9.999979E-01  1.872911E-03  0.000000E+00  8.128999E-04  3.549311E-03  1.534256E-15 -1.578137E-01  0.000000E+00
  9.900000E-01  2.100016E-03  5.000000E-01  9.999979E-01  2.061012E-03  0.000000E+00  8.234564E-03 -4.608045E-03  2.398736E-15 -5.971569E-02  0.000000E+00
  9.900000E-01  2.100016E-03  5.000000E-01  9.999979E-01  2.061012E-03  0.000000E+00  8.234564E-03 -4.608045E-03  2.398736E-15 -5.971569E-02  0.000000E+00
  9.897920E-01  2.143403E-03  5.000000E-01  9.997878E-01  2.104837E-03  0.000000E+00  9.101390E-03 -2.732326E-03  1.747014E-15  8.422867E-02  0.000000E+00
  9.891660E-01  2.273474E-03  5.000000E-01  9.991555E-01  2.236222E-03  0.000000E+00  3.397584E-03 -6.166237E-04  5.990236E-16  1.255691E-02  0.000000E+00
  9.881230E-01  2.489970E-03  5.000000E-01  9.981019E-01  2.454903E-03  0.000000E+00  3.263128E-03 -6.721475E-04  7.702512E-17  3.936339E-05  0.000000E+00
  9.866580E-01  2.792480E-03  5.000000E-01  9.966221E-01  2.760469E-03  0.000000E+00  3.867450E-03 -8.049724E-04 -5.182137E-17  6.433992E-03  0.000000E+00
  9.847700E-01  3.180394E-03  5.000000E-01  9.947151E-01  3.152301E-03  0.000000E+00  4.041398E-03 -8.273482E-04 -4.660441E-17  4.526864E-03  0.000000E+00
  9.824550E-01  3.652950E-03  5.000000E-01  9.923767E-01  3.629629E-03  0.000000E+00  4.104899E-03 -8.335461E-04 -1.938704E-17 -8.980169E-04  0.000000E+00
  9.797070E-01  4.209195E-03  5.000000E-01  9.896009E-01  4.191491E-03  0.000000E+00  4.198211E-03 -8.458810E-04 -1.382560E-18 -6.916140E-03  0.000000E+00
  9.765220E-01  4.848008E-03  5.000000E-01  9.863838E-01  4.836756E-03  0.000000E+00  4.332854E-03 -8.643371E-04  3.531514E-18 -1.387749E-02  0.000000E+00
  9.728930E-01  5.568102E-03  5.000000E-01  9.827181E-01  5.564122E-03  0.000000E+00  4.507506E-03 -8.889034E-04  2.738096E-18 -2.186116E-02  0.000000E+00
  9.688130E-01  6.367996E-03  5.000000E-01  9.785969E-01  6.372094E-03  0.000000E+00  4.715944E-03 -9.182305E-04  2.062382E-18 -3.067554E-02  0.000000E+00
  9.642740E-01  7.246074E-03  5.000000E-01  9.740121E-01  7.259040E-03  0.000000E+00  4.948181E-03 -9.500654E-04  8.989258E-19 -4.013556E-02  0.000000E+00
  9.592670E-01  8.200570E-03  5.000000E-01  9.689545E-01  8.223174E-03  0.000000E+00  5.195265E-03 -9.825522E-04 -1.610156E-19 -5.016321E-02  0.000000E+00
  9.537850E-01  9.229570E-03  5.000000E-01  9.634171E-01  9.262566E-03  0.000000E+00  5.450806E-03 -1.014262E-03 -1.286669E-18 -6.059872E-02  0.000000E+00
  9.478160E-01  1.033105E-02  5.000000E-01  9.573879E-01  1.037517E-02  0.000000E+00  5.709792E-03 -1.044193E-03 -8.693279E-19 -7.133244E-02  0.000000E+00
  9.413520E-01  1.150299E-02  5.000000E-01  9.508586E-01  1.155894E-02  0.000000E+00  5.968438E-03 -1.071714E-03 -6.565877E-19 -8.225977E-02  0.000000E+00
  9.343800E-01  1.274337E-02  5.000000E-01  9.438162E-01  1.281185E-02  0.000000E+00  6.223377E-03 -1.096356E-03 -7.041300E-19 -9.325204E-02  0.000000E+00
  9.268920E-01  1.405001E-02  5.000000E-01  9.362526E-01  1.413168E-02  0.000000E+00  6.471551E-03 -1.117822E-03  1.050034E-19 -1.042426E-01  0.000000E+00
  9.188750E-01  1.542117E-02  5.000000E-01  9.281546E-01  1.551669E-02  0.000000E+00  6.710268E-03 -1.135948E-03 -3.982967E-19 -1.151222E-01  0.000000E+00
  9.103190E-01  1.685515E-02  5.000000E-01  9.195122E-01  1.696516E-02  0.000000E+00  6.936896E-03 -1.150757E-03 -6.605833E-19 -1.258309E-01  0.000000E+00
  9.012130E-01  1.835068E-02  5.000000E-01  9.103142E-01  1.847579E-02  0.000000E+00  7.149179E-03 -1.162328E-03 -2.050729E-19 -1.363069E-01  0.000000E+00
  8.915460E-01  1.990684E-02  5.000000E-01  9.005496E-01  2.004767E-02  0.000000E+00  7.345291E-03 -1.170994E-03 -3.325586E-19 -1.465385E-01  0.000000E+00
  8.813080E-01  2.152348E-02  5.000000E-01  8.902082E-01  2.168063E-02  0.000000E+00  7.524131E-03 -1.177278E-03 -1.214873E-18 -1.565333E-01  0.000000E+00
  8.704900E-01  2.320096E-02  5.000000E-01  8.792810E-01  2.337505E-02  0.000000E+00  7.685302E-03 -1.181814E-03 -1.943986E-18 -1.663183E-01  0.000000E+00
  8.704900E-01  2.320096E-02  5.000000E-01  8.792810E-01  2.337505E-02  0.000000E+00  7.685302E-03 -1.181814E-03 -1.943986E-18 -1.663183E-01  0.000000E+00
  8.590830E-01  2.494069E-02  5.000000E-01  8.677588E-01  2.513235E-02  0.000000E+00  7.829475E-03 -1.185594E-03 -2.039877E-18 -1.760151E-01  0.000000E+00
  8.470810E-01  2.674528E-02  5.000000E-01  8.556356E-01  2.695517E-02  0.000000E+00  7.959154E-03 -1.189736E-03  5.249213E-20 -1.858152E-01  0.000000E+00
  8.344780E-01  2.861834E-02  5.000000E-01  8.429053E-01  2.884714E-02  0.000000E+00  8.078810E-03 -1.195302E-03  1.501210E-18 -1.959454E-01  0.000000E+00
  8.212700E-01  3.056390E-02  5.000000E-01  8.295639E-01  3.081235E-02  0.000000E+00  8.195266E-03 -1.203272E-03  7.483504E-20 -2.068003E-01  0.000000E+00
  8.074550E-01  3.258559E-02  5.000000E-01  8.156094E-01  3.285446E-02  0.000000E+00  8.318569E-03 -1.214275E-03 -9.798328E-19 -2.189007E-01  0.000000E+00
  7.930350E-01  3.468493E-02  5.000000E-01  8.010438E-01  3.497499E-02  0.000000E+00  8.460030E-03 -1.227774E-03  8.540815E-19 -2.324342E-01  0.000000E+00
  7.780130E-01  3.685829E-02  5.000000E-01  7.858700E-01  3.717030E-02  0.000000E+00  8.626477E-03 -1.241909E-03  9.242110E-19 -2.470291E-01  0.000000E+00
  7.623950E-01  3.909588E-02  5.000000E-01  7.700943E-01  3.943049E-02  0.000000E+00  8.817751E-03 -1.255455E-03  1.982747E-19 -2.625152E-01  0.000000E+00
  7.461930E-01  4.138841E-02  5.000000E-01  7.537287E-01  4.174618E-02  0.000000E+00  9.030991E-03 -1.268037E-03  3.251388E-20 -2.789682E-01  0.000000E+00
  7.294180E-01  4.372590E-02  5.000000E-01  7.367843E-01  4.410727E-02  0.000000E+00  9.263318E-03 -1.278980E-03 -1.779141E-19 -2.962791E-01  0.000000E+00
  7.120900E-01  4.609678E-02  5.000000E-01  7.192813E-01  4.650209E-02  0.000000E+00  9.511454E-03 -1.287215E-03  7.822298E-19 -3.143075E-01  0.000000E+00
  6.942280E-01  4.848810E-02  5.000000E-01  7.012389E-01  4.891756E-02  0.000000E+00  9.771907E-03 -1.291771E-03 -2.566852E-19 -3.329055E-01  0.000000E+00
  6.758590E-01  5.088616E-02  5.000000E-01  6.826844E-01  5.133984E-02  0.000000E+00  1.004102E-02 -1.292052E-03 -1.616915E-18 -3.518966E-01  0.000000E+00
  6.570120E-01  5.327702E-02  5.000000E-01  6.636471E-01  5.375485E-02  0.000000E+00  1.031506E-02 -1.287792E-03 -8.791057E-19 -3.711417E-01  0.000000E+00
  6.377220E-01  5.564750E-02  5.000000E-01  6.441623E-01  5.614926E-02  0.000000E+00  1.059123E-02 -1.279340E-03 -6.450253E-19 -3.906934E-01  0.000000E+00
  6.180260E-01  5.798639E-02  5.000000E-01  6.242674E-01  5.851178E-02  0.000000E+00  1.086904E-02 -1.267119E-03 -5.053984E-19 -4.106983E-01  0.000000E+00
  5.979670E-01  6.028238E-02  5.000000E-01  6.040058E-01  6.083095E-02  0.000000E+00  1.115057E-02 -1.251207E-03  3.370958E-19 -4.313719E-01  0.000000E+00
  5.775910E-01  6.252382E-02  5.000000E-01  5.834240E-01  6.309503E-02  0.000000E+00  1.143990E-02 -1.231365E-03 -7.423881E-19 -4.529316E-01  0.000000E+00
  5.569470E-01  6.469816E-02  5.000000E-01  5.625715E-01  6.529132E-02  0.000000E+00  1.174132E-02 -1.206580E-03 -1.231344E-18 -4.753191E-01  0.000000E+00
  5.360860E-01  6.678981E-02  5.000000E-01  5.414999E-01  6.740410E-02  0.000000E+00  1.205678E-02 -1.175694E-03  8.832783E-20 -4.984169E-01  0.000000E+00
  5.150640E-01  6.878326E-02  5.000000E-01  5.202656E-01  6.941768E-02  0.000000E+00  1.238617E-02 -1.138075E-03  7.599162E-19 -5.222531E-01  0.000000E+00
  4.939370E-01  7.066380E-02  5.000000E-01  4.989252E-01  7.131722E-02  0.000000E+00  1.272881E-02 -1.093106E-03  1.468542E-19 -5.468295E-01  0.000000E+00
  4.727610E-01  7.241759E-02  5.000000E-01  4.775353E-01  7.308871E-02  0.000000E+00  1.308390E-02 -1.040103E-03 -9.983166E-19 -5.721286E-01  0.000000E+00
  5.770140E-06 -5.231469E-05  5.000000E-01  5.829536E-06 -1.130551E-04  0.000000E+00  3.717477E-03 -2.157365E-02 -5.507091E-13  9.110209E-01  0.000000E+00
  9.104010E-05 -3.821327E-04  5.000000E-01  9.196063E-05 -4.462038E-04  0.000000E+00  1.990894E-02 -3.461653E-02 -4.786163E-13  9.181195E-01  0.000000E+00
  4.796980E-04 -8.888685E-04  5.000000E-01  4.845435E-04 -9.580571E-04  0.000000E+00  3.846227E-02 -3.403854E-02 -3.203410E-13  6.069082E-01  0.000000E+00
  1.456590E-03 -1.467666E-03  5.000000E-01  1.471301E-03 -1.542699E-03  0.000000E+00  4.172964E-02 -1.997309E-02 -1.553263E-13  2.749859E-01  0.000000E+00
  3.096410E-03 -2.017823E-03  5.000000E-01  3.127681E-03 -2.098412E-03  0.000000E+00  3.421672E-02 -9.831028E-03 -4.804215E-14  1.606748E-01  0.000000E+00
  5.335170E-03 -2.518037E-03  5.000000E-01  5.389050E-03 -2.603679E-03  0.000000E+00  2.736942E-02 -5.302675E-03 -2.363964E-15  1.434399E-01  0.000000E+00
  8.129670E-03 -2.962629E-03  5.000000E-01  8.211772E-03 -3.052760E-03  0.000000E+00  2.317726E-02 -3.172748E-03  7.725902E-15  1.216447E-01  0.000000E+00
  1.145600E-02 -3.333829E-03  5.000000E-01  1.157169E-02 -3.427708E-03  0.000000E+00  2.000080E-02 -1.754815E-03  5.439731E-15  8.553962E-02  0.000000E+00
  1.529970E-02 -3.565117E-03  5.000000E-01  1.545421E-02 -3.661333E-03  0.000000E+00  1.660416E-02 -5.559800E-04  2.033153E-15  4.705885E-02  0.000000E+00
  1.962420E-02 -3.564657E-03  5.000000E-01  1.982238E-02 -3.660868E-03  0.000000E+00  1.306471E-02  2.327676E-04  3.153075E-16  3.889251E-02  0.000000E+00
  2.439810E-02 -3.355293E-03  5.000000E-01  2.464449E-02 -3.449389E-03  0.000000E+00  1.067767E-02  4.618425E-04 -1.360304E-16  9.183995E-02  0.000000E+00
  2.966100E-02 -3.128234E-03  5.000000E-01  2.996054E-02 -3.220038E-03  0.000000E+00  1.024851E-02  3.951228E-04 -1.224426E-16  1.571430E-01  0.000000E+00
  3.543640E-02 -2.947001E-03  5.000000E-01  3.579427E-02 -3.036974E-03  0.000000E+00  1.098788E-02  3.085824E-04 -4.676875E-17  1.752327E-01  0.000000E+00
  4.172970E-02 -2.792540E-03  5.000000E-01  4.215112E-02 -2.880954E-03  0.000000E+00  1.174808E-02  2.849417E-04 -8.074014E-18  1.612679E-01  0.000000E+00
  4.854440E-02 -2.626313E-03  5.000000E-01  4.903464E-02 -2.713048E-03  0.000000E+00  1.206978E-02  3.365000E-04  2.243981E-18  1.424129E-01  0.000000E+00
  5.588220E-02 -2.394512E-03  5.000000E-01  5.644655E-02 -2.478906E-03  0.000000E+00  1.201809E-02  4.278037E-04  2.743574E-18  1.303492E-01  0.000000E+00
  6.375220E-02 -2.080483E-03  5.000000E-01  6.439603E-02 -2.161705E-03  0.000000E+00  1.182741E-02  5.050185E-04  2.112628E-18  1.281934E-01  0.000000E+00
  7.217040E-02 -1.696488E-03  5.000000E-01  7.289924E-02 -1.773832E-03  0.000000E+00  1.168416E-02  5.486935E-04  1.956828E-18  1.314021E-01  0.000000E+00
  8.115500E-02 -1.263189E-03  5.000000E-01  8.197457E-02 -1.336158E-03  0.000000E+00  1.163792E-02  5.733913E-04  9.976030E-19  1.334586E-01  0.000000E+00
  9.072040E-02 -7.833035E-04  5.000000E-01  9.163657E-02 -8.514261E-04  0.000000E+00  1.163846E-02  6.002708E-04  5.243962E-19  1.312868E-01  0.000000E+00
  1.008780E-01 -2.452409E-04  5.000000E-01  1.018968E-01 -3.079297E-04  0.000000E+00  1.162609E-02  6.368585E-04  1.092687E-18  1.269652E-01  0.000000E+00
  1.116380E-01  3.641697E-04  5.000000E-01  1.127654E-01  3.076353E-04  0.000000E+00  1.157087E-02  6.831493E-04  9.951554E-19  1.229257E-01  0.000000E+00
  1.230100E-01  1.063173E-03  5.000000E-01  1.242523E-01  1.013698E-03  0.000000E+00  1.145421E-02  7.386882E-04  6.986285E-19  1.198869E-01  0.000000E+00
  1.350030E-01  1.873271E-03  5.000000E-01  1.363664E-01  1.831977E-03  0.000000E+00  1.125520E-02  8.013312E-04  5.107847E-19  1.184409E-01  0.000000E+00
  1.350030E-01  1.873271E-03  5.000000E-01  1.363664E-01  1.831977E-03  0.000000E+00  1.125520E-02  8.013312E-04  5.107847E-19  1.184409E-01  0.000000E+00
  1.476220E-01  2.818728E-03  5.000000E-01  1.491128E-01  2.786982E-03  0.000000E+00  1.095663E-02  8.670314E-04  6.713603E-20  1.195448E-01  0.000000E+00
  1.608730E-01  3.925056E-03  5.000000E-01  1.624976E-01  3.904482E-03  0.000000E+00  1.055639E-02  9.300804E-04  1.162508E-19  1.243472E-01  0.000000E+00
  1.747560E-01  5.215336E-03  5.000000E-01  1.765208E-01  5.207793E-03  0.000000E+00  1.007476E-02  9.826602E-04  1.873340E-19  1.337026E-01  0.000000E+00
  1.892730E-01  6.701279E-03  5.000000E-01  1.911844E-01  6.708743E-03  0.000000E+00  9.555244E-03  1.013130E-03  4.578902E-19  1.479218E-01  0.000000E+00
  2.044180E-01  8.367370E-03  5.000000E-01  2.064824E-01  8.391659E-03  0.000000E+00  9.065974E-03  1.007883E-03  5.021417E-19  1.679482E-01  0.000000E+00
  2.201880E-01  1.014154E-02  5.000000E-01  2.224116E-01  1.018375E-02  0.000000E+00  8.668081E-03  9.691172E-04  1.131835E-19  1.912079E-01  0.000000E+00
  2.365750E-01  1.195943E-02  5.000000E-01  2.389641E-01  1.201999E-02  0.000000E+00  8.369159E-03  9.151688E-04 -7.633746E-19  2.116412E-01  0.000000E+00
  2.535710E-01  1.378816E-02  5.000000E-01  2.561318E-01  1.386719E-02  0.000000E+00  8.139829E-03  8.575763E-04 -7.234269E-19  2.276425E-01  0.000000E+00
  2.711570E-01  1.560084E-02  5.000000E-01  2.738954E-01  1.569818E-02  0.000000E+00  7.957916E-03  7.981269E-04 -2.249190E-19  2.411576E-01  0.000000E+00
  2.893100E-01  1.737075E-02  5.000000E-01  2.922317E-01  1.748596E-02  0.000000E+00  7.817836E-03  7.365022E-04 -9.310419E-19  2.533638E-01  0.000000E+00
  3.080020E-01  1.906920E-02  5.000000E-01  3.111125E-01  1.920156E-02  0.000000E+00  7.716134E-03  6.738311E-04 -6.092313E-19  2.639163E-01  0.000000E+00
  3.271950E-01  2.067613E-02  5.000000E-01  3.304993E-01  2.082472E-02  0.000000E+00  7.643863E-03  6.118046E-04  3.159137E-19  2.723977E-01  0.000000E+00
  3.468470E-01  2.217595E-02  5.000000E-01  3.503498E-01  2.233969E-02  0.000000E+00  7.590517E-03  5.514842E-04  4.313798E-19  2.791004E-01  0.000000E+00
  3.669110E-01  2.355961E-02  5.000000E-01  3.706164E-01  2.373733E-02  0.000000E+00  7.547317E-03  4.939062E-04 -3.976199E-19  2.843434E-01  0.000000E+00
  3.873360E-01  2.482381E-02  5.000000E-01  3.912477E-01  2.501429E-02  0.000000E+00  7.508363E-03  4.391247E-04 -6.525778E-19  2.885053E-01  0.000000E+00
  4.080670E-01  2.596538E-02  5.000000E-01  4.121880E-01  2.616739E-02  0.000000E+00  7.472016E-03  3.858616E-04 -1.793256E-19  2.920920E-01  0.000000E+00
  4.290470E-01  2.697681E-02  5.000000E-01  4.333799E-01  2.718903E-02  0.000000E+00  7.439698E-03  3.330432E-04  8.319731E-19  2.952892E-01  0.000000E+00
  4.502140E-01  2.785109E-02  5.000000E-01  4.547607E-01  2.807214E-02  0.000000E+00  7.412855E-03  2.805724E-04  2.002829E-18  2.979336E-01  0.000000E+00
  4.715070E-01  2.858309E-02  5.000000E-01  4.762687E-01  2.881153E-02  0.000000E+00  7.392158E-03  2.285810E-04  1.670894E-18  2.999403E-01  0.000000E+00
  4.928620E-01  2.916940E-02  5.000000E-01  4.978393E-01  2.940377E-02  0.000000E+00  7.378595E-03  1.768734E-04  1.112942E-18  3.013685E-01  0.000000E+00
  5.142140E-01  2.960680E-02  5.000000E-01  5.194070E-01  2.984558E-02  0.000000E+00  7.374123E-03  1.248520E-04  9.510493E-19  3.023105E-01  0.000000E+00
  5.355000E-01  2.989160E-02  5.000000E-01  5.409079E-01  3.013326E-02  0.000000E+00  7.380814E-03  7.215185E-05  2.257675E-19  3.027246E-01  0.000000E+00
  5.566560E-01  3.002223E-02  5.000000E-01  5.622776E-01  3.026520E-02  0.000000E+00  7.399422E-03  1.909045E-05 -6.634365E-19  3.024573E-01  0.000000E+00
  4.727610E-01  7.241759E-02  5.000000E-01  4.775353E-01  7.308871E-02  0.000000E+00  1.308390E-02 -1.040103E-03 -9.983166E-19 -5.721286E-01  0.000000E+00
  4.515970E-01  7.403150E-02  5.000000E-01  4.561576E-01  7.471892E-02  0.000000E+00  1.345072E-02 -9.783241E-04 -7.487946E-19 -5.980811E-01  0.000000E+00
  4.305020E-01  7.549359E-02  5.000000E-01  4.348496E-01  7.619578E-02  0.000000E+00  1.382876E-02 -9.071852E-04  2.958939E-19 -6.247406E-01  0.000000E+00
  4.095340E-01  7.679338E-02  5.000000E-01  4.136698E-01  7.750869E-02  0.000000E+00  1.421962E-02 -8.266370E-04  2.241819E-19 -6.526382E-01  0.000000E+00
  3.887520E-01  7.792324E-02  5.000000E-01  3.926780E-01  7.864996E-02  0.000000E+00  1.462987E-02 -7.355024E-04 -1.567376E-20 -6.823812E-01  0.000000E+00
  3.682080E-01  7.887404E-02  5.000000E-01  3.719265E-01  7.961036E-02  0.000000E+00  1.506878E-02 -6.300503E-04  3.709010E-19 -7.140264E-01  0.000000E+00
  3.479570E-01  7.963283E-02  5.000000E-01  3.514710E-01  8.037682E-02  0.000000E+00  1.554233E-02 -5.054578E-04  8.823344E-19 -7.471444E-01  0.000000E+00
  3.280470E-01  8.018482E-02  5.000000E-01  3.313599E-01  8.093438E-02  0.000000E+00  1.605044E-02 -3.586214E-04  6.738126E-19 -7.814113E-01  0.000000E+00
  3.085240E-01  8.051924E-02  5.000000E-01  3.116397E-01  8.127218E-02  0.000000E+00  1.659026E-02 -1.882536E-04 -9.529907E-19 -8.167897E-01  0.000000E+00
  2.894320E-01  8.062939E-02  5.000000E-01  2.923549E-01  8.138344E-02  0.000000E+00  1.716054E-02  8.324806E-06 -1.928594E-18 -8.533793E-01  0.000000E+00
  2.708110E-01  8.050826E-02  5.000000E-01  2.735459E-01  8.126109E-02  0.000000E+00  1.776704E-02  2.356575E-04 -1.175690E-18 -8.926927E-01  0.000000E+00
  2.526960E-01  8.014867E-02  5.000000E-01  2.552479E-01  8.089787E-02  0.000000E+00  1.843843E-02  5.010396E-04 -1.159610E-18 -9.384289E-01  0.000000E+00
  2.351200E-01  7.954518E-02  5.000000E-01  2.374944E-01  8.028829E-02  0.000000E+00  1.923217E-02  8.302614E-04 -1.745488E-18 -9.911956E-01  0.000000E+00
  2.181120E-01  7.866727E-02  5.000000E-01  2.203147E-01  7.940151E-02  0.000000E+00  2.018663E-02  1.269330E-03 -3.179226E-18 -1.044863E+00  0.000000E+00
  2.017010E-01  7.746030E-02  5.000000E-01  2.037380E-01  7.818235E-02  0.000000E+00  2.126814E-02  1.845781E-03 -2.227886E-18 -1.093719E+00  0.000000E+00
  1.859190E-01  7.589202E-02  5.000000E-01  1.877966E-01  7.659823E-02  0.000000E+00  2.239871E-02  2.560239E-03  7.074766E-19 -1.134924E+00  0.000000E+00
  1.707920E-01  7.394800E-02  5.000000E-01  1.725168E-01  7.463458E-02  0.000000E+00  2.349925E-02  3.410479E-03  7.976381E-19 -1.164193E+00  0.000000E+00
  1.563470E-01  7.162255E-02  5.000000E-01  1.579259E-01  7.228565E-02  0.000000E+00  2.448788E-02  4.387655E-03 -4.522189E-19 -1.176180E+00  0.000000E+00
  1.426070E-01  6.892061E-02  5.000000E-01  1.440472E-01  6.955642E-02  0.000000E+00  2.527782E-02  5.460170E-03 -1.072374E-18 -1.166963E+00  0.000000E+00
  1.295900E-01  6.586413E-02  5.000000E-01  1.308987E-01  6.646907E-02  0.000000E+00  2.579529E-02  6.572278E-03 -1.954565E-18 -1.135531E+00  0.000000E+00
  1.173060E-01  6.249301E-02  5.000000E-01  1.184907E-01  6.306390E-02  0.000000E+00  2.600143E-02  7.662828E-03 -2.601504E-18 -1.082919E+00  0.000000E+00
  1.057600E-01  5.885738E-02  5.000000E-01  1.068281E-01  5.939156E-02  0.000000E+00  2.589647E-02  8.680308E-03 -2.742869E-19 -1.011340E+00  0.000000E+00
  9.495290E-02  5.501379E-02  5.000000E-01  9.591182E-02  5.550915E-02  0.000000E+00  2.551405E-02  9.584627E-03  1.868456E-18 -9.244443E-01  0.000000E+00
  8.487680E-02  5.102332E-02  5.000000E-01  8.573396E-02  5.147839E-02  0.000000E+00  2.491145E-02  1.035360E-02  4.614821E-18 -8.254946E-01  0.000000E+00
  8.487680E-02  5.102332E-02  5.000000E-01  8.573396E-02  5.147839E-02  0.000000E+00  2.491145E-02  1.035360E-02  4.614821E-18 -8.254946E-01  0.000000E+00
  7.552090E-02  4.694741E-02  5.000000E-01  7.628358E-02  4.736131E-02  0.000000E+00  2.413925E-02  1.097625E-02  1.019957E-17 -7.156517E-01  0.000000E+00
  6.687020E-02  4.284453E-02  5.000000E-01  6.754551E-02  4.321700E-02  0.000000E+00  2.322167E-02  1.142255E-02  1.022774E-17 -5.975816E-01  0.000000E+00
  5.889940E-02  3.877818E-02  5.000000E-01  5.949422E-02  3.910958E-02  0.000000E+00  2.219252E-02  1.165733E-02  7.217531E-18 -4.783220E-01  0.000000E+00
  5.157140E-02  3.481274E-02  5.000000E-01  5.209221E-02  3.510409E-02  0.000000E+00  2.114128E-02  1.170515E-02  6.413987E-18 -3.660443E-01  0.000000E+00
  4.484650E-02  3.100091E-02  5.000000E-01  4.529940E-02  3.125377E-02  0.000000E+00  2.020443E-02  1.168249E-02  5.155341E-18 -2.649754E-01  0.000000E+00
  3.869820E-02  2.737296E-02  5.000000E-01  3.908901E-02  2.758918E-02  0.000000E+00  1.951280E-02  1.175114E-02 -3.018924E-18 -1.741299E-01  0.000000E+00
  3.311550E-02  2.394063E-02  5.000000E-01  3.344993E-02  2.412219E-02  0.000000E+00  1.912571E-02  1.202727E-02 -2.237882E-17 -8.824807E-02  0.000000E+00
  2.809130E-02  2.071127E-02  5.000000E-01  2.837499E-02  2.086022E-02  0.000000E+00  1.889837E-02  1.247357E-02 -5.034255E-17  8.024703E-03  0.000000E+00
  2.362330E-02  1.768882E-02  5.000000E-01  2.386187E-02  1.780724E-02  0.000000E+00  1.844048E-02  1.273743E-02 -9.942679E-17  1.248168E-01  0.000000E+00
  1.966610E-02  1.489725E-02  5.000000E-01  1.986471E-02  1.498748E-02  0.000000E+00  1.753818E-02  1.233674E-02 -1.638928E-16  2.363527E-01  0.000000E+00
  1.609460E-02  1.238974E-02  5.000000E-01  1.625714E-02  1.245465E-02  0.000000E+00  1.650928E-02  1.136738E-02 -1.046142E-16  3.154075E-01  0.000000E+00
  1.282740E-02  1.018564E-02  5.000000E-01  1.295694E-02  1.022829E-02  0.000000E+00  1.592773E-02  1.053067E-02  5.138269E-16  3.645401E-01  0.000000E+00
  9.860990E-03  8.265642E-03  5.000000E-01  9.960576E-03  8.288903E-03  0.000000E+00  1.619835E-02  1.046556E-02  2.409424E-15  4.017779E-01  0.000000E+00
  7.251350E-03  6.584094E-03  5.000000E-01  7.324582E-03  6.590374E-03  0.000000E+00  1.740535E-02  1.142643E-02  5.649804E-15  4.416868E-01  0.000000E+00
  5.038810E-03  5.107806E-03  5.000000E-01  5.089697E-03  5.099177E-03  0.000000E+00  1.944607E-02  1.348196E-02  6.875477E-15  4.869197E-01  0.000000E+00
  3.239710E-03  3.819861E-03  5.000000E-01  3.272429E-03  3.798226E-03  0.000000E+00  2.197826E-02  1.678263E-02 -5.061314E-15  5.441515E-01  0.000000E+00
  1.861880E-03  2.711097E-03  5.000000E-01  1.880684E-03  2.678264E-03  0.000000E+00  2.374522E-02  2.113769E-02 -5.101799E-14  6.301490E-01  0.000000E+00
  9.013910E-04  1.780545E-03  5.000000E-01  9.104951E-04  1.738314E-03  0.000000E+00  2.174884E-02  2.434978E-02 -1.524040E-13  7.665837E-01  0.000000E+00
  3.295630E-04  1.036520E-03  5.000000E-01  3.328923E-04  9.867761E-04  0.000000E+00  1.317986E-02  1.976305E-02 -3.062834E-13  9.375340E-01  0.000000E+00
  7.194000E-05  4.942163E-04  5.000000E-01  7.266764E-05  4.389952E-04  0.000000E+00  2.385984E-03  6.069797E-04 -4.611638E-13  1.022618E+00  0.000000E+00
  4.516100E-06  1.679252E-04  5.000000E-01  4.562832E-06  1.094089E-04  0.000000E+00 -2.236218E-03 -2.137928E-02 -5.420433E-13  9.273042E-01  0.000000E+00
 -1.112850E-09  5.961007E-05  5.000000E-01  0.000000E+00  0.000000E+00  0.000000E+00 -1.306989E-03 -2.234103E-02 -5.564347E-13  8.277552E-01  0.000000E+00