 Title = "ADflow Slice Data"
Variables =  "CoordinateX"  "CoordinateY"  "CoordinateZ"  "XoC"  "YoC"  "ZoC" "VelocityX" "VelocityY" "VelocityZ" "CoefPressure" "Mach" 
Zone T= "Slice_0001 None Absolute Regular z = 0.50000000"
 Nodes =          192  Elements=          184  ZONETYPE=FELINESEG
 DATAPACKING=POINT
  5.566560E-01  2.511650E-02  5.000000E-01  5.622777E-01  2.517946E-02  0.000000E+00  1.094121E-02 -1.999957E-03 -5.109562E-18  2.341225E-01  0.000000E+00
  5.776220E-01  2.136842E-02  5.000000E-01  5.834555E-01  2.139353E-02  0.000000E+00  1.181667E-02 -2.025971E-03 -6.478212E-18  1.733963E-01  0.000000E+00
  5.983370E-01  1.795939E-02  5.000000E-01  6.043797E-01  1.795008E-02  0.000000E+00  1.250013E-02 -1.932327E-03 -2.645790E-18  1.173131E-01  0.000000E+00
  6.187480E-01  1.499856E-02  5.000000E-01  6.249968E-01  1.495934E-02  0.000000E+00  1.292695E-02 -1.715728E-03  9.070458E-19  6.759220E-02  0.000000E+00
  6.388030E-01  1.257888E-02  5.000000E-01  6.452544E-01  1.251523E-02  0.000000E+00  1.303137E-02 -1.384970E-03  1.110894E-18  2.703863E-02  0.000000E+00
  6.584530E-01  1.077388E-02  5.000000E-01  6.651028E-01  1.069200E-02  0.000000E+00  1.277250E-02 -9.736300E-04  1.912800E-18 -1.138187E-03  0.000000E+00
  6.776550E-01  9.622238E-03  5.000000E-01  6.844987E-01  9.528726E-03  0.000000E+00  1.217642E-02 -5.540698E-04  1.776328E-18 -1.163333E-02  0.000000E+00
  6.963720E-01  9.062007E-03  5.000000E-01  7.034048E-01  8.962838E-03  0.000000E+00  1.134692E-02 -2.027552E-04  6.184413E-19 -1.959667E-03  0.000000E+00
  7.145680E-01  8.975619E-03  5.000000E-01  7.217845E-01  8.875577E-03  0.000000E+00  1.040765E-02  4.814394E-05 -4.669267E-19  2.224142E-02  0.000000E+00
  7.322140E-01  9.237424E-03  5.000000E-01  7.396087E-01  9.140026E-03  0.000000E+00  9.450147E-03  2.039365E-04 -7.119227E-19  5.346721E-02  0.000000E+00
  7.492860E-01  9.732280E-03  5.000000E-01  7.568531E-01  9.639880E-03  0.000000E+00  8.533283E-03  2.855903E-04 -4.196029E-19  8.709064E-02  0.000000E+00
  7.657630E-01  1.036469E-02  5.000000E-01  7.734965E-01  1.027868E-02  0.000000E+00  7.699413E-03  3.160174E-04 -4.460287E-20  1.202338E-01  0.000000E+00
  7.816300E-01  1.106113E-02  5.000000E-01  7.895238E-01  1.098215E-02  0.000000E+00  6.990917E-03  3.065933E-04 -1.526951E-19  1.518278E-01  0.000000E+00
  7.968740E-01  1.173229E-02  5.000000E-01  8.049217E-01  1.166008E-02  0.000000E+00  6.471734E-03  2.555230E-04 -1.684872E-18  1.836733E-01  0.000000E+00
  8.114890E-01  1.224044E-02  5.000000E-01  8.196843E-01  1.217337E-02  0.000000E+00  6.193884E-03  1.708424E-04 -2.552191E-18  2.124120E-01  0.000000E+00
  8.254710E-01  1.251888E-02  5.000000E-01  8.338075E-01  1.245462E-02  0.000000E+00  6.137896E-03  7.118667E-05 -2.036501E-18  2.316137E-01  0.000000E+00
  8.388180E-01  1.256138E-02  5.000000E-01  8.472893E-01  1.249755E-02  0.000000E+00  6.233995E-03 -3.214615E-05 -1.226807E-18  2.414134E-01  0.000000E+00
  8.515320E-01  1.239285E-02  5.000000E-01  8.601317E-01  1.232732E-02  0.000000E+00  6.419676E-03 -1.345991E-04 -7.969204E-19  2.451496E-01  0.000000E+00
  8.636180E-01  1.204997E-02  5.000000E-01  8.723398E-01  1.198098E-02  0.000000E+00  6.657233E-03 -2.343344E-04 -1.168373E-19  2.451228E-01  0.000000E+00
  8.750810E-01  1.157119E-02  5.000000E-01  8.839186E-01  1.149736E-02  0.000000E+00  6.923468E-03 -3.302763E-04  3.591246E-19  2.422989E-01  0.000000E+00
  8.859290E-01  1.099173E-02  5.000000E-01  8.948761E-01  1.091205E-02  0.000000E+00  7.201817E-03 -4.215582E-04  3.977890E-19  2.373409E-01  0.000000E+00
  8.961710E-01  1.034178E-02  5.000000E-01  9.052215E-01  1.025553E-02  0.000000E+00  7.481410E-03 -5.075519E-04  5.258544E-19  2.308801E-01  0.000000E+00
  9.058170E-01  9.646644E-03  5.000000E-01  9.149650E-01  9.553379E-03  0.000000E+00  7.756373E-03 -5.879848E-04  3.503253E-19  2.233797E-01  0.000000E+00
  9.148770E-01  8.927054E-03  5.000000E-01  9.241165E-01  8.826521E-03  0.000000E+00  8.023808E-03 -6.627745E-04  8.887712E-19  2.151388E-01  0.000000E+00
  9.148770E-01  8.927054E-03  5.000000E-01  9.241165E-01  8.826521E-03  0.000000E+00  8.023808E-03 -6.627745E-04  8.887712E-19  2.151388E-01  0.000000E+00
  9.233640E-01  8.199899E-03  5.000000E-01  9.326892E-01  8.092023E-03  0.000000E+00  8.282566E-03 -7.321075E-04  1.040581E-18  2.064116E-01  0.000000E+00
  9.312880E-01  7.478622E-03  5.000000E-01  9.406932E-01  7.363462E-03  0.000000E+00  8.532869E-03 -7.963645E-04 -4.815426E-19  1.974073E-01  0.000000E+00
  9.386620E-01  6.773878E-03  5.000000E-01  9.481417E-01  6.651600E-03  0.000000E+00  8.775557E-03 -8.559979E-04 -2.636745E-19  1.882497E-01  0.000000E+00
  9.454960E-01  6.094114E-03  5.000000E-01  9.550447E-01  5.964972E-03  0.000000E+00  9.011374E-03 -9.113823E-04  9.867014E-19  1.790166E-01  0.000000E+00
  9.518040E-01  5.445865E-03  5.000000E-01  9.614164E-01  5.310176E-03  0.000000E+00  9.241435E-03 -9.629883E-04  8.482868E-19  1.698075E-01  0.000000E+00
  9.575950E-01  4.834284E-03  5.000000E-01  9.672659E-01  4.692418E-03  0.000000E+00  9.467986E-03 -1.011419E-03  3.167682E-19  1.606835E-01  0.000000E+00
  9.628810E-01  4.263301E-03  5.000000E-01  9.726053E-01  4.115669E-03  0.000000E+00  9.695138E-03 -1.057397E-03 -2.800582E-19  1.516770E-01  0.000000E+00
  9.676710E-01  3.735959E-03  5.000000E-01  9.774436E-01  3.583001E-03  0.000000E+00  9.930039E-03 -1.102007E-03 -1.552160E-18  1.428339E-01  0.000000E+00
  9.719750E-01  3.254567E-03  5.000000E-01  9.817911E-01  3.096748E-03  0.000000E+00  1.018218E-02 -1.146500E-03 -3.115915E-18  1.341945E-01  0.000000E+00
  9.758020E-01  2.820839E-03  5.000000E-01  9.856567E-01  2.658639E-03  0.000000E+00  1.045637E-02 -1.191645E-03 -3.968742E-18  1.258036E-01  0.000000E+00
  9.791590E-01  2.436102E-03  5.000000E-01  9.890477E-01  2.270016E-03  0.000000E+00  1.073312E-02 -1.235599E-03 -2.884167E-18  1.175633E-01  0.000000E+00
  9.820540E-01  2.101292E-03  5.000000E-01  9.919719E-01  1.931825E-03  0.000000E+00  1.095001E-02 -1.272157E-03  5.773664E-18  1.098566E-01  0.000000E+00
  9.844930E-01  1.817125E-03  5.000000E-01  9.944355E-01  1.644788E-03  0.000000E+00  1.098794E-02 -1.284152E-03  2.913430E-17  1.035979E-01  0.000000E+00
  9.864820E-01  1.584075E-03  5.000000E-01  9.964446E-01  1.409385E-03  0.000000E+00  1.053764E-02 -1.226227E-03  4.944274E-17  9.516852E-02  0.000000E+00
  9.880240E-01  1.402530E-03  5.000000E-01  9.980022E-01  1.226006E-03  0.000000E+00  9.100845E-03 -1.081014E-03 -4.330299E-17  7.865963E-02  0.000000E+00
  9.891220E-01  1.272700E-03  5.000000E-01  9.991113E-01  1.094865E-03  0.000000E+00  8.429165E-03 -1.110869E-03 -5.235451E-16  9.327808E-02  0.000000E+00
  9.897810E-01  1.194737E-03  5.000000E-01  9.997769E-01  1.016115E-03  0.000000E+00  1.569751E-02 -6.674802E-04 -1.578016E-15  1.855073E-01  0.000000E+00
  9.900000E-01  1.168752E-03  5.000000E-01  9.999981E-01  9.898677E-04  0.000000E+00  1.309641E-02 -1.578174E-03 -2.049995E-15 -5.440707E-02  0.000000E+00
  9.900000E-01  1.354973E-03  5.000000E-01  9.999981E-01  1.177969E-03  0.000000E+00  1.212074E-03 -1.342802E-02 -1.293561E-15 -1.977087E-01  0.000000E+00
  9.900000E-01  1.541184E-03  5.000000E-01  9.999981E-01  1.366061E-03  0.000000E+00 -7.330646E-04 -1.421268E-02 -3.423747E-16 -1.865546E-02  0.000000E+00
  9.900000E-01  1.727405E-03  5.000000E-01  9.999981E-01  1.554162E-03  0.000000E+00 -4.655912E-04  3.411708E-03  4.423599E-16 -2.737993E-02  0.000000E+00
  9.900000E-01  1.913626E-03  5.000000E-01  9.999981E-01  1.742264E-03  0.000000E+00  8.030748E-04  3.574614E-03  1.604069E-15 -1.504049E-01  0.000000E+00
  9.900000E-01  2.099846E-03  5.000000E-01  9.999981E-01  1.930365E-03  0.000000E+00  8.099321E-03 -4.506679E-03  2.450643E-15 -5.363933E-02  0.000000E+00
  9.900000E-01  2.099846E-03  5.000000E-01  9.999981E-01  1.930365E-03  0.000000E+00  8.099321E-03 -4.506679E-03  2.450643E-15 -5.363933E-02  0.000000E+00
  9.897920E-01  2.143156E-03  5.000000E-01  9.997880E-01  1.974112E-03  0.000000E+00  8.882846E-03 -2.675454E-03  1.755549E-15  8.876293E-02  0.000000E+00
  9.891660E-01  2.272904E-03  5.000000E-01  9.991557E-01  2.105171E-03  0.000000E+00  3.218400E-03 -5.781992E-04  5.725132E-16  1.701466E-02  0.000000E+00
  9.881230E-01  2.488568E-03  5.000000E-01  9.981022E-01  2.323013E-03  0.000000E+00  3.118497E-03 -6.386159E-04  5.094524E-17  3.416095E-03  0.000000E+00
  9.866580E-01  2.789288E-03  5.000000E-01  9.966224E-01  2.626770E-03  0.000000E+00  3.784564E-03 -7.819467E-04 -5.741795E-17  8.558114E-03  0.000000E+00
  9.847700E-01  3.173818E-03  5.000000E-01  9.947153E-01  3.015183E-03  0.000000E+00  4.034779E-03 -8.172183E-04 -3.941894E-17  5.370342E-03  0.000000E+00
  9.824550E-01  3.640566E-03  5.000000E-01  9.923769E-01  3.486645E-03  0.000000E+00  4.176410E-03 -8.356982E-04 -1.324963E-17 -1.463989E-03  0.000000E+00
  9.797070E-01  4.187536E-03  5.000000E-01  9.896012E-01  4.039139E-03  0.000000E+00  4.346777E-03 -8.588150E-04 -8.769074E-19 -9.045223E-03  0.000000E+00
  9.765220E-01  4.812351E-03  5.000000E-01  9.863840E-01  4.670264E-03  0.000000E+00  4.558397E-03 -8.864814E-04  2.309534E-18 -1.769939E-02  0.000000E+00
  9.728930E-01  5.512223E-03  5.000000E-01  9.827184E-01  5.377203E-03  0.000000E+00  4.811582E-03 -9.186841E-04  1.238697E-18 -2.747479E-02  0.000000E+00
  9.688130E-01  6.283910E-03  5.000000E-01  9.785972E-01  6.156684E-03  0.000000E+00  5.101301E-03 -9.539734E-04  3.266801E-19 -3.814482E-02  0.000000E+00
  9.642740E-01  7.123750E-03  5.000000E-01  9.740123E-01  7.005006E-03  0.000000E+00  5.418056E-03 -9.898719E-04  1.366212E-18 -4.947983E-02  0.000000E+00
  9.592670E-01  8.027608E-03  5.000000E-01  9.689548E-01  7.917992E-03  0.000000E+00  5.752768E-03 -1.024204E-03  3.371166E-18 -6.134980E-02  0.000000E+00
  9.537850E-01  8.990886E-03  5.000000E-01  9.634174E-01  8.890998E-03  0.000000E+00  6.098456E-03 -1.055106E-03  2.329854E-18 -7.352465E-02  0.000000E+00
  9.478160E-01  1.000843E-02  5.000000E-01  9.573881E-01  9.918817E-03  0.000000E+00  6.449101E-03 -1.081097E-03  2.567843E-19 -8.581590E-02  0.000000E+00
  9.413520E-01  1.107472E-02  5.000000E-01  9.508588E-01  1.099587E-02  0.000000E+00  6.799643E-03 -1.101037E-03  1.019040E-18 -9.802528E-02  0.000000E+00
  9.343800E-01  1.218366E-02  5.000000E-01  9.438164E-01  1.211602E-02  0.000000E+00  7.145165E-03 -1.113938E-03  8.566974E-19 -1.099129E-01  0.000000E+00
  9.268920E-01  1.332855E-02  5.000000E-01  9.362528E-01  1.327247E-02  0.000000E+00  7.480723E-03 -1.119000E-03 -7.084096E-19 -1.212819E-01  0.000000E+00
  9.188750E-01  1.450241E-02  5.000000E-01  9.281548E-01  1.445819E-02  0.000000E+00  7.801329E-03 -1.115538E-03 -1.469618E-18 -1.318700E-01  0.000000E+00
  9.103190E-01  1.569770E-02  5.000000E-01  9.195124E-01  1.566554E-02  0.000000E+00  8.101477E-03 -1.103094E-03 -4.933667E-19 -1.414405E-01  0.000000E+00
  9.012130E-01  1.690648E-02  5.000000E-01  9.103145E-01  1.688654E-02  0.000000E+00  8.375199E-03 -1.081272E-03  1.046062E-18 -1.497129E-01  0.000000E+00
  8.915460E-01  1.812041E-02  5.000000E-01  9.005498E-01  1.811272E-02  0.000000E+00  8.615753E-03 -1.049977E-03  9.760271E-19 -1.564270E-01  0.000000E+00
  8.813080E-01  1.933109E-02  5.000000E-01  8.902084E-01  1.933563E-02  0.000000E+00  8.815400E-03 -1.009374E-03  3.646376E-19 -1.612751E-01  0.000000E+00
  8.704900E-01  2.053003E-02  5.000000E-01  8.792812E-01  2.054668E-02  0.000000E+00  8.964489E-03 -9.599333E-04 -1.372043E-18 -1.638816E-01  0.000000E+00
  8.704900E-01  2.053003E-02  5.000000E-01  8.792812E-01  2.054668E-02  0.000000E+00  8.964489E-03 -9.599333E-04 -1.372043E-18 -1.638816E-01  0.000000E+00
  8.590830E-01  2.170939E-02  5.000000E-01  8.677590E-01  2.173795E-02  0.000000E+00  9.051561E-03 -9.029078E-04 -2.680212E-18 -1.639718E-01  0.000000E+00
  8.470810E-01  2.286315E-02  5.000000E-01  8.556358E-01  2.290337E-02  0.000000E+00  9.064684E-03 -8.404023E-04 -2.452850E-18 -1.613231E-01  0.000000E+00
  8.344780E-01  2.398837E-02  5.000000E-01  8.429055E-01  2.403994E-02  0.000000E+00  8.991084E-03 -7.755820E-04 -2.892668E-18 -1.555594E-01  0.000000E+00
  8.212700E-01  2.508760E-02  5.000000E-01  8.295641E-01  2.515028E-02  0.000000E+00  8.815973E-03 -7.132739E-04 -3.262763E-18 -1.462798E-01  0.000000E+00
  8.074550E-01  2.617334E-02  5.000000E-01  8.156096E-01  2.624698E-02  0.000000E+00  8.526615E-03 -6.606758E-04 -3.576495E-18 -1.338350E-01  0.000000E+00
  7.930350E-01  2.727442E-02  5.000000E-01  8.010440E-01  2.735918E-02  0.000000E+00  8.126113E-03 -6.264574E-04 -2.417150E-18 -1.204852E-01  0.000000E+00
  7.780130E-01  2.844273E-02  5.000000E-01  7.858703E-01  2.853928E-02  0.000000E+00  7.645480E-03 -6.146679E-04 -3.772769E-19 -1.093216E-01  0.000000E+00
  7.623950E-01  2.974143E-02  5.000000E-01  7.700945E-01  2.985110E-02  0.000000E+00  7.129839E-03 -6.181320E-04  7.549173E-19 -1.009233E-01  0.000000E+00
  7.461930E-01  3.120849E-02  5.000000E-01  7.537289E-01  3.133298E-02  0.000000E+00  6.611622E-03 -6.281268E-04  7.397039E-19 -9.491710E-02  0.000000E+00
  7.294180E-01  3.288280E-02  5.000000E-01  7.367845E-01  3.302420E-02  0.000000E+00  6.109617E-03 -6.434251E-04 -4.567144E-19 -9.220084E-02  0.000000E+00
  7.120900E-01  3.481112E-02  5.000000E-01  7.192815E-01  3.497200E-02  0.000000E+00  5.641427E-03 -6.649261E-04  8.570218E-19 -9.373341E-02  0.000000E+00
  6.942280E-01  3.704414E-02  5.000000E-01  7.012391E-01  3.722756E-02  0.000000E+00  5.229283E-03 -6.936719E-04  2.254545E-18 -1.009163E-01  0.000000E+00
  6.758590E-01  3.963068E-02  5.000000E-01  6.826846E-01  3.984022E-02  0.000000E+00  4.906797E-03 -7.321298E-04  1.799515E-18 -1.159757E-01  0.000000E+00
  6.570120E-01  4.260730E-02  5.000000E-01  6.636472E-01  4.284691E-02  0.000000E+00  4.718911E-03 -7.839475E-04  1.662368E-18 -1.404709E-01  0.000000E+00
  6.377220E-01  4.597306E-02  5.000000E-01  6.441624E-01  4.624666E-02  0.000000E+00  4.706248E-03 -8.526799E-04  1.647808E-18 -1.737407E-01  0.000000E+00
  6.180260E-01  4.967214E-02  5.000000E-01  6.242675E-01  4.998309E-02  0.000000E+00  4.890515E-03 -9.428770E-04  1.530024E-19 -2.148623E-01  0.000000E+00
  5.979670E-01  5.363417E-02  5.000000E-01  6.040059E-01  5.398514E-02  0.000000E+00  5.279409E-03 -1.059475E-03 -1.589538E-18 -2.639844E-01  0.000000E+00
  5.775910E-01  5.778217E-02  5.000000E-01  5.834242E-01  5.817503E-02  0.000000E+00  5.878720E-03 -1.204360E-03 -3.810499E-19 -3.217430E-01  0.000000E+00
  5.569470E-01  6.203401E-02  5.000000E-01  5.625717E-01  6.246981E-02  0.000000E+00  6.699775E-03 -1.374928E-03 -3.504282E-19 -3.892000E-01  0.000000E+00
  5.360860E-01  6.630039E-02  5.000000E-01  5.415000E-01  6.677928E-02  0.000000E+00  7.758512E-03 -1.560611E-03 -7.890145E-19 -4.662714E-01  0.000000E+00
  5.150640E-01  7.046747E-02  5.000000E-01  5.202657E-01  7.098844E-02  0.000000E+00  9.062965E-03 -1.739830E-03 -1.483722E-18 -5.513871E-01  0.000000E+00
  4.939370E-01  7.440853E-02  5.000000E-01  4.989253E-01  7.496931E-02  0.000000E+00  1.060171E-02 -1.882008E-03 -3.182286E-18 -6.421723E-01  0.000000E+00
  4.727610E-01  7.800186E-02  5.000000E-01  4.775355E-01  7.859893E-02  0.000000E+00  1.233286E-02 -1.948558E-03 -1.941091E-18 -7.332985E-01  0.000000E+00
  5.770140E-06  7.817399E-05  5.000000E-01  5.829537E-06 -1.117244E-04  0.000000E+00  1.280358E-02 -7.883990E-02 -2.079050E-13  6.003522E-01  0.000000E+00
  9.104010E-05 -2.386944E-04  5.000000E-01  9.196065E-05 -4.317929E-04  0.000000E+00  4.414680E-02 -7.911159E-02 -1.904607E-13  4.605964E-01  0.000000E+00
  4.796980E-04 -6.901427E-04  5.000000E-01  4.845437E-04 -8.878004E-04  0.000000E+00  6.543728E-02 -5.264388E-02 -1.309882E-13 -1.096588E-01  0.000000E+00
  1.456590E-03 -1.129114E-03  5.000000E-01  1.471301E-03 -1.331205E-03  0.000000E+00  5.288590E-02 -1.896430E-02 -6.403495E-14 -4.694190E-01  0.000000E+00
  3.096410E-03 -1.438714E-03  5.000000E-01  3.127682E-03 -1.643932E-03  0.000000E+00  3.075502E-02 -4.526349E-03 -1.993223E-14 -4.061767E-01  0.000000E+00
  5.335170E-03 -1.601666E-03  5.000000E-01  5.389052E-03 -1.808529E-03  0.000000E+00  1.848944E-02 -7.923858E-04 -1.282341E-15 -2.505618E-01  0.000000E+00
  8.129670E-03 -1.616365E-03  5.000000E-01  8.211774E-03 -1.823376E-03  0.000000E+00  1.368698E-02  2.413646E-04  2.813759E-15 -1.607967E-01  0.000000E+00
  1.145600E-02 -1.470125E-03  5.000000E-01  1.157170E-02 -1.675660E-03  0.000000E+00  1.115632E-02  7.442659E-04  1.982956E-15 -1.240101E-01  0.000000E+00
  1.529970E-02 -1.106705E-03  5.000000E-01  1.545421E-02 -1.308570E-03  0.000000E+00  8.613422E-03  1.013511E-03  7.279007E-16 -9.994257E-02  0.000000E+00
  1.962420E-02 -4.551541E-04  5.000000E-01  1.982239E-02 -6.504386E-04  0.000000E+00  6.113461E-03  1.002446E-03  1.136090E-16 -4.966614E-02  0.000000E+00
  2.439810E-02  4.456204E-04  5.000000E-01  2.464450E-02  2.594329E-04  0.000000E+00  4.773308E-03  8.905418E-04 -4.412661E-17  4.611456E-02  0.000000E+00
  2.966100E-02  1.414522E-03  5.000000E-01  2.996055E-02  1.238119E-03  0.000000E+00  5.087536E-03  9.064077E-04 -4.059153E-17  1.403679E-01  0.000000E+00
  3.543640E-02  2.388286E-03  5.000000E-01  3.579428E-02  2.221717E-03  0.000000E+00  6.242089E-03  1.013945E-03 -1.612154E-17  1.865954E-01  0.000000E+00
  4.172970E-02  3.374396E-03  5.000000E-01  4.215113E-02  3.217786E-03  0.000000E+00  7.236337E-03  1.104704E-03 -4.172820E-18  2.022025E-01  0.000000E+00
  4.854440E-02  4.394174E-03  5.000000E-01  4.903466E-02  4.247863E-03  0.000000E+00  7.731912E-03  1.148572E-03 -3.891871E-19  2.120282E-01  0.000000E+00
  5.588220E-02  5.478622E-03  5.000000E-01  5.644656E-02  5.343263E-03  0.000000E+00  7.845662E-03  1.149668E-03 -6.557292E-20  2.251758E-01  0.000000E+00
  6.375220E-02  6.623621E-03  5.000000E-01  6.439604E-02  6.499826E-03  0.000000E+00  7.808407E-03  1.112520E-03 -6.792475E-19  2.430552E-01  0.000000E+00
  7.217040E-02  7.797740E-03  5.000000E-01  7.289926E-02  7.685802E-03  0.000000E+00  7.793248E-03  1.047716E-03  2.091318E-19  2.619038E-01  0.000000E+00
  8.115500E-02  8.959484E-03  5.000000E-01  8.197460E-02  8.859279E-03  0.000000E+00  7.865018E-03  9.690740E-04  2.382907E-19  2.769846E-01  0.000000E+00
  9.072040E-02  1.007922E-02  5.000000E-01  9.163660E-02  9.990325E-03  0.000000E+00  8.018372E-03  8.858901E-04  2.968734E-19  2.860136E-01  0.000000E+00
  1.008780E-01  1.113605E-02  5.000000E-01  1.018968E-01  1.105783E-02  0.000000E+00  8.246367E-03  8.001662E-04  1.256618E-18  2.900267E-01  0.000000E+00
  1.116380E-01  1.210754E-02  5.000000E-01  1.127654E-01  1.203913E-02  0.000000E+00  8.569129E-03  7.120760E-04  9.124379E-19  2.899247E-01  0.000000E+00
  1.230100E-01  1.297432E-02  5.000000E-01  1.242523E-01  1.291467E-02  0.000000E+00  9.016017E-03  6.228185E-04  2.525287E-19  2.851162E-01  0.000000E+00
  1.350030E-01  1.372185E-02  5.000000E-01  1.363664E-01  1.366974E-02  0.000000E+00  9.600852E-03  5.347556E-04 -3.274636E-19  2.746839E-01  0.000000E+00
  1.350030E-01  1.372185E-02  5.000000E-01  1.363664E-01  1.366974E-02  0.000000E+00  9.600852E-03  5.347556E-04 -3.274636E-19  2.746839E-01  0.000000E+00
  1.476220E-01  1.434636E-02  5.000000E-01  1.491129E-01  1.430056E-02  0.000000E+00  1.029793E-02  4.549048E-04 -9.414760E-19  2.576322E-01  0.000000E+00
  1.608730E-01  1.486547E-02  5.000000E-01  1.624977E-01  1.482491E-02  0.000000E+00  1.101673E-02  4.015888E-04 -1.583681E-19  2.333145E-01  0.000000E+00
  1.747560E-01  1.533553E-02  5.000000E-01  1.765209E-01  1.529972E-02  0.000000E+00  1.159284E-02  4.124223E-04  1.494881E-18  2.030121E-01  0.000000E+00
  1.892730E-01  1.587591E-02  5.000000E-01  1.911845E-01  1.584555E-02  0.000000E+00  1.180195E-02  5.418571E-04  2.917583E-18  1.696501E-01  0.000000E+00
  2.044180E-01  1.669900E-02  5.000000E-01  2.064824E-01  1.667695E-02  0.000000E+00  1.140250E-02  8.111353E-04  1.907579E-18  1.364849E-01  0.000000E+00
  2.201880E-01  1.810249E-02  5.000000E-01  2.224117E-01  1.809462E-02  0.000000E+00  1.030070E-02  1.113429E-03  1.549023E-18  1.191413E-01  0.000000E+00
  2.365750E-01  2.024472E-02  5.000000E-01  2.389642E-01  2.025849E-02  0.000000E+00  8.691687E-03  1.281753E-03  3.243064E-18  1.370271E-01  0.000000E+00
  2.535710E-01  2.310817E-02  5.000000E-01  2.561318E-01  2.315085E-02  0.000000E+00  6.918441E-03  1.258057E-03 -6.679840E-20  1.862572E-01  0.000000E+00
  2.711570E-01  2.660638E-02  5.000000E-01  2.738955E-01  2.668439E-02  0.000000E+00  5.266922E-03  1.089864E-03 -1.778508E-18  2.505264E-01  0.000000E+00
  2.893100E-01  3.055400E-02  5.000000E-01  2.922318E-01  3.067188E-02  0.000000E+00  3.924223E-03  8.557140E-04 -8.448203E-19  3.189536E-01  0.000000E+00
  3.080020E-01  3.464354E-02  5.000000E-01  3.111126E-01  3.480272E-02  0.000000E+00  3.000161E-03  6.291818E-04 -1.195838E-18  3.845367E-01  0.000000E+00
  3.271950E-01  3.845512E-02  5.000000E-01  3.304994E-01  3.865280E-02  0.000000E+00  2.533080E-03  4.536652E-04 -6.018782E-19  4.416248E-01  0.000000E+00
  3.468470E-01  4.154195E-02  5.000000E-01  3.503499E-01  4.177080E-02  0.000000E+00  2.472882E-03  3.294794E-04 -4.240832E-19  4.812942E-01  0.000000E+00
  3.669110E-01  4.373797E-02  5.000000E-01  3.706165E-01  4.398899E-02  0.000000E+00  2.704736E-03  2.268443E-04 -1.587105E-18  5.008002E-01  0.000000E+00
  3.873360E-01  4.499615E-02  5.000000E-01  3.912478E-01  4.525988E-02  0.000000E+00  3.139516E-03  1.112979E-04 -1.666038E-18  5.083213E-01  0.000000E+00
  4.080670E-01  4.527941E-02  5.000000E-01  4.121881E-01  4.554601E-02  0.000000E+00  3.751041E-03 -4.750916E-05  8.616937E-19  5.087501E-01  0.000000E+00
  4.290470E-01  4.455814E-02  5.000000E-01  4.333800E-01  4.481745E-02  0.000000E+00  4.538656E-03 -2.749459E-04  3.815962E-18  5.017114E-01  0.000000E+00
  4.502140E-01  4.281924E-02  5.000000E-01  4.547608E-01  4.306099E-02  0.000000E+00  5.489152E-03 -5.773380E-04  5.660809E-18  4.842468E-01  0.000000E+00
  4.715070E-01  4.016870E-02  5.000000E-01  4.762688E-01  4.038368E-02  0.000000E+00  6.558812E-03 -9.285248E-04  1.350586E-18  4.526227E-01  0.000000E+00
  4.928620E-01  3.683512E-02  5.000000E-01  4.978395E-01  3.701643E-02  0.000000E+00  7.688011E-03 -1.286125E-03  1.078375E-18  4.080470E-01  0.000000E+00
  5.142140E-01  3.305840E-02  5.000000E-01  5.194071E-01  3.320157E-02  0.000000E+00  8.825915E-03 -1.609128E-03  1.610339E-18  3.550316E-01  0.000000E+00
  5.355000E-01  2.907571E-02  5.000000E-01  5.409081E-01  2.917866E-02  0.000000E+00  9.927216E-03 -1.857401E-03 -2.595652E-18  2.961971E-01  0.000000E+00
  5.566560E-01  2.511650E-02  5.000000E-01  5.622777E-01  2.517946E-02  0.000000E+00  1.094121E-02 -1.999957E-03 -5.109562E-18  2.341225E-01  0.000000E+00
  4.727610E-01  7.800186E-02  5.000000E-01  4.775355E-01  7.859893E-02  0.000000E+00  1.233286E-02 -1.948558E-03 -1.941091E-18 -7.332985E-01  0.000000E+00
  4.515970E-01  8.113304E-02  5.000000E-01  4.561577E-01  8.176172E-02  0.000000E+00  1.416299E-02 -1.896273E-03 -5.477080E-19 -8.151994E-01  0.000000E+00
  4.305020E-01  8.370015E-02  5.000000E-01  4.348497E-01  8.435476E-02  0.000000E+00  1.594069E-02 -1.702295E-03 -6.885966E-19 -8.808429E-01  0.000000E+00
  4.095340E-01  8.565892E-02  5.000000E-01  4.136699E-01  8.633331E-02  0.000000E+00  1.751360E-02 -1.384961E-03 -6.173576E-19 -9.313058E-01  0.000000E+00
  3.887520E-01  8.702627E-02  5.000000E-01  3.926781E-01  8.771447E-02  0.000000E+00  1.880315E-02 -9.768040E-04 -3.607117E-19 -9.690110E-01  0.000000E+00
  3.682080E-01  8.782420E-02  5.000000E-01  3.719266E-01  8.852046E-02  0.000000E+00  1.979401E-02 -5.006770E-04 -5.360819E-19 -9.915911E-01  0.000000E+00
  3.479570E-01  8.807432E-02  5.000000E-01  3.514711E-01  8.877311E-02  0.000000E+00  2.046355E-02  2.124436E-05 -7.391576E-19 -9.914032E-01  0.000000E+00
  3.280470E-01  8.779849E-02  5.000000E-01  3.313600E-01  8.849449E-02  0.000000E+00  2.073208E-02  5.361168E-04 -2.732299E-19 -9.632102E-01  0.000000E+00
  3.085240E-01  8.706152E-02  5.000000E-01  3.116398E-01  8.775008E-02  0.000000E+00  2.051898E-02  9.306563E-04  1.625179E-18 -9.194318E-01  0.000000E+00
  2.894320E-01  8.604495E-02  5.000000E-01  2.923550E-01  8.672324E-02  0.000000E+00  1.989134E-02  1.130697E-03  1.233218E-18 -8.786812E-01  0.000000E+00
  2.708110E-01  8.491651E-02  5.000000E-01  2.735460E-01  8.558340E-02  0.000000E+00  1.906363E-02  1.171736E-03 -9.261158E-19 -8.514003E-01  0.000000E+00
  2.526960E-01  8.378658E-02  5.000000E-01  2.552480E-01  8.444206E-02  0.000000E+00  1.828398E-02  1.130535E-03 -4.109406E-19 -8.468418E-01  0.000000E+00
  2.351200E-01  8.270843E-02  5.000000E-01  2.374945E-01  8.335302E-02  0.000000E+00  1.779948E-02  1.089584E-03 -1.320117E-18 -8.740503E-01  0.000000E+00
  2.181120E-01  8.166488E-02  5.000000E-01  2.203147E-01  8.229894E-02  0.000000E+00  1.785074E-02  1.134912E-03 -5.065476E-18 -9.383572E-01  0.000000E+00
  2.017010E-01  8.058122E-02  5.000000E-01  2.037380E-01  8.120433E-02  0.000000E+00  1.862606E-02  1.376147E-03 -6.774802E-18 -1.030254E+00  0.000000E+00
  1.859190E-01  7.929963E-02  5.000000E-01  1.877966E-01  7.990980E-02  0.000000E+00  2.012071E-02  1.928749E-03 -4.590578E-18 -1.124595E+00  0.000000E+00
  1.707920E-01  7.764897E-02  5.000000E-01  1.725169E-01  7.824246E-02  0.000000E+00  2.205703E-02  2.831082E-03 -3.961853E-18 -1.200209E+00  0.000000E+00
  1.563470E-01  7.554296E-02  5.000000E-01  1.579260E-01  7.611519E-02  0.000000E+00  2.402263E-02  4.029000E-03 -3.676228E-18 -1.245291E+00  0.000000E+00
  1.426070E-01  7.296139E-02  5.000000E-01  1.440472E-01  7.350755E-02  0.000000E+00  2.564677E-02  5.410447E-03 -3.133112E-18 -1.253672E+00  0.000000E+00
  1.295900E-01  6.993168E-02  5.000000E-01  1.308987E-01  7.044724E-02  0.000000E+00  2.669913E-02  6.832484E-03 -5.889053E-18 -1.226213E+00  0.000000E+00
  1.173060E-01  6.651204E-02  5.000000E-01  1.184907E-01  6.699306E-02  0.000000E+00  2.712480E-02  8.168513E-03 -7.273790E-18 -1.168071E+00  0.000000E+00
  1.057600E-01  6.277400E-02  5.000000E-01  1.068281E-01  6.321728E-02  0.000000E+00  2.700003E-02  9.339431E-03 -5.427957E-18 -1.085775E+00  0.000000E+00
  9.495290E-02  5.879354E-02  5.000000E-01  9.591184E-02  5.919661E-02  0.000000E+00  2.646152E-02  1.031132E-02  2.784321E-19 -9.863441E-01  0.000000E+00
  8.487680E-02  5.464651E-02  5.000000E-01  8.573398E-02  5.500771E-02  0.000000E+00  2.565320E-02  1.108625E-02  6.383421E-18 -8.753268E-01  0.000000E+00
  8.487680E-02  5.464651E-02  5.000000E-01  8.573398E-02  5.500771E-02  0.000000E+00  2.565320E-02  1.108625E-02  6.383421E-18 -8.753268E-01  0.000000E+00
  7.552090E-02  5.040458E-02  5.000000E-01  7.628360E-02  5.072293E-02  0.000000E+00  2.468361E-02  1.168213E-02  9.518014E-18 -7.553334E-01  0.000000E+00
  6.687020E-02  4.613240E-02  5.000000E-01  6.754553E-02  4.640761E-02  0.000000E+00  2.361061E-02  1.209726E-02  1.047874E-17 -6.293748E-01  0.000000E+00
  5.889940E-02  4.189463E-02  5.000000E-01  5.949423E-02  4.212704E-02  0.000000E+00  2.248001E-02  1.231918E-02  9.939704E-18 -5.036610E-01  0.000000E+00
  5.157140E-02  3.775307E-02  5.000000E-01  5.209223E-02  3.794365E-02  0.000000E+00  2.137294E-02  1.238173E-02  7.204100E-18 -3.850891E-01  0.000000E+00
  4.484650E-02  3.375730E-02  5.000000E-01  4.529941E-02  3.390753E-02  0.000000E+00  2.040415E-02  1.239498E-02  5.393283E-18 -2.770235E-01  0.000000E+00
  3.869820E-02  2.993730E-02  5.000000E-01  3.908902E-02  3.004895E-02  0.000000E+00  1.967941E-02  1.250658E-02 -1.363158E-18 -1.782487E-01  0.000000E+00
  3.311550E-02  2.630744E-02  5.000000E-01  3.344994E-02  2.638244E-02  0.000000E+00  1.924122E-02  1.282235E-02 -1.707073E-17 -8.386326E-02  0.000000E+00
  2.809130E-02  2.287815E-02  5.000000E-01  2.837500E-02  2.291851E-02  0.000000E+00  1.896072E-02  1.331166E-02 -3.154093E-17  1.968546E-02  0.000000E+00
  2.362330E-02  1.965720E-02  5.000000E-01  2.386188E-02  1.966503E-02  0.000000E+00  1.851386E-02  1.366453E-02 -4.933942E-17  1.412469E-01  0.000000E+00
  1.966610E-02  1.666664E-02  5.000000E-01  1.986471E-02  1.664428E-02  0.000000E+00  1.774843E-02  1.345402E-02 -7.624915E-17  2.582541E-01  0.000000E+00
  1.609460E-02  1.394815E-02  5.000000E-01  1.625714E-02  1.389833E-02  0.000000E+00  1.695942E-02  1.276333E-02 -8.455727E-17  3.474675E-01  0.000000E+00
  1.282740E-02  1.151760E-02  5.000000E-01  1.295695E-02  1.144323E-02  0.000000E+00  1.660929E-02  1.221213E-02  6.213789E-17  4.125425E-01  0.000000E+00
  9.860990E-03  9.363327E-03  5.000000E-01  9.960579E-03  9.267200E-03  0.000000E+00  1.695078E-02  1.236016E-02  6.666265E-16  4.704204E-01  0.000000E+00
  7.251350E-03  7.454803E-03  5.000000E-01  7.324583E-03  7.339402E-03  0.000000E+00  1.792086E-02  1.338597E-02  1.979381E-15  5.340004E-01  0.000000E+00
  5.038810E-03  5.770843E-03  5.000000E-01  5.089699E-03  5.638435E-03  0.000000E+00  1.923428E-02  1.519304E-02  3.267020E-15  6.054548E-01  0.000000E+00
  3.239710E-03  4.302753E-03  5.000000E-01  3.272429E-03  4.155519E-03  0.000000E+00  2.022289E-02  1.748768E-02  9.551029E-16  6.903214E-01  0.000000E+00
  1.861880E-03  3.048213E-03  5.000000E-01  1.880684E-03  2.888309E-03  0.000000E+00  1.917581E-02  1.900499E-02 -1.306580E-14  8.003101E-01  0.000000E+00
  9.013910E-04  2.011376E-03  5.000000E-01  9.104954E-04  1.841002E-03  0.000000E+00  1.299243E-02  1.540172E-02 -4.923884E-14  9.416183E-01  0.000000E+00
  3.295630E-04  1.202130E-03  5.000000E-01  3.328924E-04  1.023582E-03  0.000000E+00  3.832770E-04 -2.930025E-03 -1.101199E-13  1.065744E+00  0.000000E+00
  7.194000E-05  6.304019E-04  5.000000E-01  7.266766E-05  4.460805E-04  0.000000E+00 -1.043360E-02 -4.342100E-02 -1.752342E-13  1.014272E+00  0.000000E+00
  4.516100E-06  2.971357E-04  5.000000E-01  4.562833E-06  1.094486E-04  0.000000E+00 -9.813931E-03 -8.472438E-02 -2.055077E-13  7.202945E-01  0.000000E+00
 -1.112850E-09  1.887813E-04  5.000000E-01  0.000000E+00  0.000000E+00  0.000000E+00 -2.070567E-03 -8.715241E-02 -2.049407E-13  5.122440E-01  0.000000E+00