 Title = "ADflow Slice Data"
Variables =  "CoordinateX"  "CoordinateY"  "CoordinateZ"  "XoC"  "YoC"  "ZoC" "VelocityX" "VelocityY" "VelocityZ" "CoefPressure" "Mach" 
Zone T= "Slice_0001 None Absolute Regular z = 0.50000000"
 Nodes =          192  Elements=          184  ZONETYPE=FELINESEG
 DATAPACKING=POINT
  5.566560E-01  2.235152E-02  5.000000E-01  5.622776E-01  2.254656E-02  0.000000E+00  7.947367E-03  1.023200E-04  2.661717E-18  2.490099E-01  0.000000E+00
  5.776220E-01  2.260596E-02  5.000000E-01  5.834553E-01  2.280358E-02  0.000000E+00  7.838870E-03  8.382492E-05  4.980461E-18  2.514244E-01  0.000000E+00
  5.983370E-01  2.279798E-02  5.000000E-01  6.043795E-01  2.299753E-02  0.000000E+00  7.745016E-03  5.599981E-05  2.018175E-18  2.553401E-01  0.000000E+00
  6.187480E-01  2.290282E-02  5.000000E-01  6.249966E-01  2.310343E-02  0.000000E+00  7.681288E-03  1.967705E-05 -4.127975E-19  2.589526E-01  0.000000E+00
  6.388030E-01  2.290174E-02  5.000000E-01  6.452541E-01  2.310234E-02  0.000000E+00  7.651471E-03 -2.365978E-05 -7.358332E-19  2.615013E-01  0.000000E+00
  6.584530E-01  2.278155E-02  5.000000E-01  6.651026E-01  2.298094E-02  0.000000E+00  7.652029E-03 -7.149182E-05  4.826263E-19  2.629889E-01  0.000000E+00
  6.776550E-01  2.253981E-02  5.000000E-01  6.844985E-01  2.273675E-02  0.000000E+00  7.669665E-03 -1.173110E-04  1.848833E-18  2.627761E-01  0.000000E+00
  6.963720E-01  2.220216E-02  5.000000E-01  7.034045E-01  2.239569E-02  0.000000E+00  7.683802E-03 -1.558536E-04  2.117404E-18  2.609811E-01  0.000000E+00
  7.145680E-01  2.179267E-02  5.000000E-01  7.217843E-01  2.198207E-02  0.000000E+00  7.679923E-03 -1.878381E-04  1.008601E-18  2.591098E-01  0.000000E+00
  7.322140E-01  2.132697E-02  5.000000E-01  7.396085E-01  2.151168E-02  0.000000E+00  7.655100E-03 -2.159535E-04  6.255867E-19  2.580101E-01  0.000000E+00
  7.492860E-01  2.081438E-02  5.000000E-01  7.568529E-01  2.099391E-02  0.000000E+00  7.614420E-03 -2.423802E-04  1.986620E-18  2.577320E-01  0.000000E+00
  7.657630E-01  2.025982E-02  5.000000E-01  7.734963E-01  2.043374E-02  0.000000E+00  7.567348E-03 -2.689124E-04  1.130801E-18  2.579015E-01  0.000000E+00
  7.816300E-01  1.966552E-02  5.000000E-01  7.895235E-01  1.983344E-02  0.000000E+00  7.528167E-03 -3.001813E-04 -6.230448E-19  2.583342E-01  0.000000E+00
  7.968740E-01  1.902159E-02  5.000000E-01  8.049215E-01  1.918301E-02  0.000000E+00  7.521147E-03 -3.451386E-04 -6.191311E-19  2.596589E-01  0.000000E+00
  8.114890E-01  1.829827E-02  5.000000E-01  8.196841E-01  1.845238E-02  0.000000E+00  7.569399E-03 -4.063881E-04 -4.285539E-20  2.607277E-01  0.000000E+00
  8.254710E-01  1.748841E-02  5.000000E-01  8.338073E-01  1.763435E-02  0.000000E+00  7.673747E-03 -4.769069E-04  1.259220E-18  2.592347E-01  0.000000E+00
  8.388180E-01  1.660287E-02  5.000000E-01  8.472890E-01  1.673986E-02  0.000000E+00  7.816851E-03 -5.493752E-04  1.379621E-18  2.549997E-01  0.000000E+00
  8.515320E-01  1.566038E-02  5.000000E-01  8.601314E-01  1.578785E-02  0.000000E+00  7.981131E-03 -6.194954E-04  1.167782E-18  2.489980E-01  0.000000E+00
  8.636180E-01  1.468112E-02  5.000000E-01  8.723395E-01  1.479870E-02  0.000000E+00  8.155519E-03 -6.853932E-04  1.847398E-18  2.419835E-01  0.000000E+00
  8.750810E-01  1.368394E-02  5.000000E-01  8.839183E-01  1.379146E-02  0.000000E+00  8.333325E-03 -7.464751E-04  2.950412E-18  2.343092E-01  0.000000E+00
  8.859290E-01  1.268474E-02  5.000000E-01  8.948758E-01  1.278217E-02  0.000000E+00  8.510319E-03 -8.028523E-04  2.780241E-18  2.262312E-01  0.000000E+00
  8.961710E-01  1.169616E-02  5.000000E-01  9.052212E-01  1.178361E-02  0.000000E+00  8.684331E-03 -8.548803E-04  1.082825E-18  2.179460E-01  0.000000E+00
  9.058170E-01  1.072849E-02  5.000000E-01  9.149647E-01  1.080616E-02  0.000000E+00  8.854602E-03 -9.029462E-04  2.561871E-19  2.095711E-01  0.000000E+00
  9.148770E-01  9.789852E-03  5.000000E-01  9.241162E-01  9.858042E-03  0.000000E+00  9.020888E-03 -9.473251E-04 -6.681061E-19  2.011634E-01  0.000000E+00
  9.148770E-01  9.789852E-03  5.000000E-01  9.241162E-01  9.858042E-03  0.000000E+00  9.020888E-03 -9.473251E-04 -6.681061E-19  2.011634E-01  0.000000E+00
  9.233640E-01  8.886811E-03  5.000000E-01  9.326889E-01  8.945882E-03  0.000000E+00  9.183307E-03 -9.884073E-04 -6.943766E-19  1.927997E-01  0.000000E+00
  9.312880E-01  8.024383E-03  5.000000E-01  9.406929E-01  8.074744E-03  0.000000E+00  9.342525E-03 -1.026665E-03  5.621650E-19  1.845468E-01  0.000000E+00
  9.386620E-01  7.206395E-03  5.000000E-01  9.481414E-01  7.248495E-03  0.000000E+00  9.499371E-03 -1.062499E-03 -1.381141E-19  1.764263E-01  0.000000E+00
  9.454960E-01  6.435808E-03  5.000000E-01  9.550444E-01  6.470126E-03  0.000000E+00  9.654357E-03 -1.096155E-03 -4.582772E-19  1.684366E-01  0.000000E+00
  9.518040E-01  5.714738E-03  5.000000E-01  9.614161E-01  5.741774E-03  0.000000E+00  9.808163E-03 -1.127969E-03  1.201801E-18  1.606101E-01  0.000000E+00
  9.575950E-01  5.044800E-03  5.000000E-01  9.672656E-01  5.065071E-03  0.000000E+00  9.962489E-03 -1.158387E-03  1.269003E-18  1.529655E-01  0.000000E+00
  9.628810E-01  4.427090E-03  5.000000E-01  9.726049E-01  4.441123E-03  0.000000E+00  1.012081E-02 -1.187961E-03  5.355617E-19  1.454985E-01  0.000000E+00
  9.676710E-01  3.862383E-03  5.000000E-01  9.774433E-01  3.870713E-03  0.000000E+00  1.028950E-02 -1.217613E-03 -1.310048E-20  1.382327E-01  0.000000E+00
  9.719750E-01  3.351176E-03  5.000000E-01  9.817908E-01  3.354342E-03  0.000000E+00  1.047690E-02 -1.248388E-03 -8.969369E-19  1.311893E-01  0.000000E+00
  9.758020E-01  2.893731E-03  5.000000E-01  9.856564E-01  2.892279E-03  0.000000E+00  1.068582E-02 -1.280737E-03 -9.004182E-19  1.243993E-01  0.000000E+00
  9.791590E-01  2.490228E-03  5.000000E-01  9.890473E-01  2.484700E-03  0.000000E+00  1.089352E-02 -1.312219E-03 -1.238481E-19  1.177609E-01  0.000000E+00
  9.820540E-01  2.140687E-03  5.000000E-01  9.919716E-01  2.131629E-03  0.000000E+00  1.103328E-02 -1.335708E-03  6.552006E-18  1.116520E-01  0.000000E+00
  9.844930E-01  1.845105E-03  5.000000E-01  9.944352E-01  1.833062E-03  0.000000E+00  1.098201E-02 -1.333069E-03  2.935123E-17  1.069532E-01  0.000000E+00
  9.864820E-01  1.603394E-03  5.000000E-01  9.964443E-01  1.588911E-03  0.000000E+00  1.043429E-02 -1.258632E-03  5.042905E-17  1.000916E-01  0.000000E+00
  9.880240E-01  1.415522E-03  5.000000E-01  9.980018E-01  1.399141E-03  0.000000E+00  8.920258E-03 -1.096363E-03 -4.230195E-17  8.549028E-02  0.000000E+00
  9.891220E-01  1.281387E-03  5.000000E-01  9.991109E-01  1.263652E-03  0.000000E+00  8.204732E-03 -1.112668E-03 -5.151411E-16  1.018078E-01  0.000000E+00
  9.897810E-01  1.200920E-03  5.000000E-01  9.997766E-01  1.182372E-03  0.000000E+00  1.528595E-02 -7.003710E-04 -1.545188E-15  1.923823E-01  0.000000E+00
  9.900000E-01  1.174115E-03  5.000000E-01  9.999978E-01  1.155297E-03  0.000000E+00  1.276505E-02 -1.768882E-03 -2.005656E-15 -4.265213E-02  0.000000E+00
  9.900000E-01  1.360336E-03  5.000000E-01  9.999978E-01  1.343398E-03  0.000000E+00  1.179209E-03 -1.350392E-02 -1.267900E-15 -1.812085E-01  0.000000E+00
  9.900000E-01  1.546546E-03  5.000000E-01  9.999978E-01  1.531488E-03  0.000000E+00 -7.199170E-04 -1.430918E-02 -3.330651E-16 -5.675687E-03  0.000000E+00
  9.900000E-01  1.732766E-03  5.000000E-01  9.999978E-01  1.719589E-03  0.000000E+00 -4.409699E-04  2.717822E-03  4.420332E-16 -1.515458E-02  0.000000E+00
  9.900000E-01  1.918987E-03  5.000000E-01  9.999978E-01  1.907690E-03  0.000000E+00  7.651094E-04  2.995507E-03  1.557220E-15 -1.319190E-01  0.000000E+00
  9.900000E-01  2.105207E-03  5.000000E-01  9.999978E-01  2.095791E-03  0.000000E+00  7.678178E-03 -4.493407E-03  2.352065E-15 -3.876177E-02  0.000000E+00
  9.900000E-01  2.105207E-03  5.000000E-01  9.999978E-01  2.095791E-03  0.000000E+00  7.678178E-03 -4.493407E-03  2.352065E-15 -3.876177E-02  0.000000E+00
  9.897920E-01  2.149870E-03  5.000000E-01  9.997877E-01  2.140905E-03  0.000000E+00  8.385578E-03 -2.587714E-03  1.679470E-15  9.649322E-02  0.000000E+00
  9.891660E-01  2.283866E-03  5.000000E-01  9.991554E-01  2.276254E-03  0.000000E+00  2.956632E-03 -5.483034E-04  5.482782E-16  2.819790E-02  0.000000E+00
  9.881230E-01  2.507182E-03  5.000000E-01  9.981018E-01  2.501825E-03  0.000000E+00  2.802896E-03 -5.957818E-04  4.935183E-17  1.596751E-02  0.000000E+00
  9.866580E-01  2.819855E-03  5.000000E-01  9.966221E-01  2.817657E-03  0.000000E+00  3.360508E-03 -7.243415E-04 -5.378713E-17  2.200001E-02  0.000000E+00
  9.847700E-01  3.221861E-03  5.000000E-01  9.947150E-01  3.223722E-03  0.000000E+00  3.510759E-03 -7.461183E-04 -3.650208E-17  2.022976E-02  0.000000E+00
  9.824550E-01  3.713202E-03  5.000000E-01  9.923766E-01  3.720025E-03  0.000000E+00  3.554297E-03 -7.518860E-04 -1.203298E-17  1.498690E-02  0.000000E+00
  9.797070E-01  4.293845E-03  5.000000E-01  9.896009E-01  4.306532E-03  0.000000E+00  3.626335E-03 -7.644523E-04 -2.630339E-18  9.073727E-03  0.000000E+00
  9.765220E-01  4.963722E-03  5.000000E-01  9.863837E-01  4.983174E-03  0.000000E+00  3.738291E-03 -7.840437E-04 -2.836492E-19  2.164099E-03  0.000000E+00
  9.728930E-01  5.722738E-03  5.000000E-01  9.827180E-01  5.749855E-03  0.000000E+00  3.889147E-03 -8.107712E-04  6.770100E-19 -5.867752E-03  0.000000E+00
  9.688130E-01  6.570708E-03  5.000000E-01  9.785968E-01  6.606389E-03  0.000000E+00  4.074161E-03 -8.436241E-04  7.115928E-20 -1.489624E-02  0.000000E+00
  9.642740E-01  7.507397E-03  5.000000E-01  9.740120E-01  7.552537E-03  0.000000E+00  4.285477E-03 -8.807478E-04 -3.512545E-19 -2.479857E-02  0.000000E+00
  9.592670E-01  8.532462E-03  5.000000E-01  9.689544E-01  8.587954E-03  0.000000E+00  4.516257E-03 -9.206022E-04 -4.869662E-19 -3.555632E-02  0.000000E+00
  9.537850E-01  9.645431E-03  5.000000E-01  9.634171E-01  9.712162E-03  0.000000E+00  4.762012E-03 -9.619996E-04 -3.208662E-19 -4.707087E-02  0.000000E+00
  9.478160E-01  1.084564E-02  5.000000E-01  9.573878E-01  1.092449E-02  0.000000E+00  5.019594E-03 -1.004095E-03 -9.632953E-19 -5.930134E-02  0.000000E+00
  9.413520E-01  1.213235E-02  5.000000E-01  9.508585E-01  1.222419E-02  0.000000E+00  5.287195E-03 -1.046350E-03 -1.811802E-18 -7.221011E-02  0.000000E+00
  9.343800E-01  1.350456E-02  5.000000E-01  9.438161E-01  1.361026E-02  0.000000E+00  5.563527E-03 -1.088313E-03 -5.198648E-19 -8.573344E-02  0.000000E+00
  9.268920E-01  1.496080E-02  5.000000E-01  9.362525E-01  1.508121E-02  0.000000E+00  5.847625E-03 -1.129607E-03  5.042797E-19 -9.985530E-02  0.000000E+00
  9.188750E-01  1.649959E-02  5.000000E-01  9.281545E-01  1.663554E-02  0.000000E+00  6.138871E-03 -1.169851E-03  2.469035E-19 -1.145197E-01  0.000000E+00
  9.103190E-01  1.811885E-02  5.000000E-01  9.195121E-01  1.827115E-02  0.000000E+00  6.436815E-03 -1.208729E-03  2.621635E-19 -1.297147E-01  0.000000E+00
  9.012130E-01  1.981608E-02  5.000000E-01  9.103142E-01  1.998552E-02  0.000000E+00  6.741323E-03 -1.245836E-03  2.286163E-19 -1.453887E-01  0.000000E+00
  8.915460E-01  2.158802E-02  5.000000E-01  9.005495E-01  2.177535E-02  0.000000E+00  7.052424E-03 -1.280814E-03 -1.183460E-18 -1.615298E-01  0.000000E+00
  8.813080E-01  2.343086E-02  5.000000E-01  8.902081E-01  2.363681E-02  0.000000E+00  7.370502E-03 -1.313276E-03 -1.880890E-18 -1.781035E-01  0.000000E+00
  8.704900E-01  2.533959E-02  5.000000E-01  8.792809E-01  2.556482E-02  0.000000E+00  7.695784E-03 -1.342668E-03  1.218514E-18 -1.950224E-01  0.000000E+00
  8.704900E-01  2.533959E-02  5.000000E-01  8.792809E-01  2.556482E-02  0.000000E+00  7.695784E-03 -1.342668E-03  1.218514E-18 -1.950224E-01  0.000000E+00
  8.590830E-01  2.730820E-02  5.000000E-01  8.677587E-01  2.755331E-02  0.000000E+00  8.028370E-03 -1.368550E-03  3.099096E-18 -2.122698E-01  0.000000E+00
  8.470810E-01  2.932972E-02  5.000000E-01  8.556355E-01  2.959524E-02  0.000000E+00  8.369041E-03 -1.390365E-03  2.624443E-18 -2.298446E-01  0.000000E+00
  8.344780E-01  3.139561E-02  5.000000E-01  8.429052E-01  3.168199E-02  0.000000E+00  8.718771E-03 -1.407120E-03  4.399853E-18 -2.476478E-01  0.000000E+00
  8.212700E-01  3.349509E-02  5.000000E-01  8.295638E-01  3.380267E-02  0.000000E+00  9.077288E-03 -1.417391E-03  4.000177E-18 -2.654852E-01  0.000000E+00
  8.074550E-01  3.561490E-02  5.000000E-01  8.156093E-01  3.594390E-02  0.000000E+00  9.441942E-03 -1.419417E-03  9.177742E-19 -2.830665E-01  0.000000E+00
  7.930350E-01  3.773945E-02  5.000000E-01  8.010437E-01  3.808990E-02  0.000000E+00  9.806857E-03 -1.411246E-03 -6.877634E-20 -2.999927E-01  0.000000E+00
  7.780130E-01  3.985144E-02  5.000000E-01  7.858700E-01  4.022321E-02  0.000000E+00  1.016251E-02 -1.391066E-03 -7.714753E-19 -3.158038E-01  0.000000E+00
  7.623950E-01  4.193313E-02  5.000000E-01  7.700943E-01  4.232593E-02  0.000000E+00  1.049566E-02 -1.357392E-03 -2.494058E-18 -3.298911E-01  0.000000E+00
  7.461930E-01  4.396626E-02  5.000000E-01  7.537286E-01  4.437959E-02  0.000000E+00  1.078878E-02 -1.309631E-03 -2.621080E-18 -3.414246E-01  0.000000E+00
  7.294180E-01  4.593553E-02  5.000000E-01  7.367842E-01  4.636874E-02  0.000000E+00  1.102045E-02 -1.249839E-03 -1.257230E-18 -3.495718E-01  0.000000E+00
  7.120900E-01  4.783337E-02  5.000000E-01  7.192812E-01  4.828576E-02  0.000000E+00  1.116818E-02 -1.183311E-03 -1.135250E-18 -3.536433E-01  0.000000E+00
  6.942280E-01  4.966368E-02  5.000000E-01  7.012389E-01  5.013455E-02  0.000000E+00  1.121525E-02 -1.118940E-03 -8.347527E-19 -3.540463E-01  0.000000E+00
  6.758590E-01  5.144702E-02  5.000000E-01  6.826844E-01  5.193590E-02  0.000000E+00  1.116482E-02 -1.068177E-03 -1.897891E-18 -3.534313E-01  0.000000E+00
  6.570120E-01  5.322212E-02  5.000000E-01  6.636470E-01  5.372893E-02  0.000000E+00  1.105098E-02 -1.038087E-03 -2.990740E-18 -3.551341E-01  0.000000E+00
  6.377220E-01  5.502869E-02  5.000000E-01  6.441622E-01  5.555374E-02  0.000000E+00  1.092505E-02 -1.024249E-03 -3.180300E-19 -3.598639E-01  0.000000E+00
  6.180260E-01  5.687765E-02  5.000000E-01  6.242673E-01  5.742136E-02  0.000000E+00  1.082665E-02 -1.019834E-03  1.073971E-19 -3.672071E-01  0.000000E+00
  5.979670E-01  5.877369E-02  5.000000E-01  6.040057E-01  5.933656E-02  0.000000E+00  1.077796E-02 -1.023926E-03 -3.728441E-19 -3.778336E-01  0.000000E+00
  5.775910E-01  6.071918E-02  5.000000E-01  5.834240E-01  6.130169E-02  0.000000E+00  1.079550E-02 -1.036808E-03 -3.514588E-19 -3.927245E-01  0.000000E+00
  5.569470E-01  6.271272E-02  5.000000E-01  5.625715E-01  6.331536E-02  0.000000E+00  1.089679E-02 -1.057023E-03 -1.209405E-18 -4.130261E-01  0.000000E+00
  5.360860E-01  6.474458E-02  5.000000E-01  5.414998E-01  6.536775E-02  0.000000E+00  1.110033E-02 -1.078852E-03 -3.263857E-19 -4.388368E-01  0.000000E+00
  5.150640E-01  6.678334E-02  5.000000E-01  5.202655E-01  6.742709E-02  0.000000E+00  1.141629E-02 -1.093893E-03  1.279183E-18 -4.691838E-01  0.000000E+00
  4.939370E-01  6.878344E-02  5.000000E-01  4.989252E-01  6.944740E-02  0.000000E+00  1.184083E-02 -1.095339E-03  6.046335E-19 -5.031954E-01  0.000000E+00
  4.727610E-01  7.069747E-02  5.000000E-01  4.775353E-01  7.138075E-02  0.000000E+00  1.235783E-02 -1.077071E-03  1.483663E-19 -5.393442E-01  0.000000E+00
  5.770140E-06 -8.185394E-05  5.000000E-01  5.829536E-06 -1.133565E-04  0.000000E+00  2.635762E-03 -1.485020E-02 -5.279968E-13  9.274207E-01  0.000000E+00
  9.104010E-05 -4.146068E-04  5.000000E-01  9.196062E-05 -4.494698E-04  0.000000E+00  1.676081E-02 -2.878755E-02 -4.535229E-13  9.519595E-01  0.000000E+00
  4.796980E-04 -9.338813E-04  5.000000E-01  4.845435E-04 -9.739883E-04  0.000000E+00  3.425976E-02 -3.106198E-02 -3.016831E-13  6.793251E-01  0.000000E+00
  1.456590E-03 -1.544443E-03  5.000000E-01  1.471301E-03 -1.590716E-03  0.000000E+00  3.886799E-02 -1.975854E-02 -1.458373E-13  3.641783E-01  0.000000E+00
  3.096410E-03 -2.149426E-03  5.000000E-01  3.127681E-03 -2.201809E-03  0.000000E+00  3.319567E-02 -1.063300E-02 -4.477720E-14  2.376284E-01  0.000000E+00
  5.335170E-03 -2.726881E-03  5.000000E-01  5.389050E-03 -2.785095E-03  0.000000E+00  2.735942E-02 -6.250575E-03 -1.789267E-15  2.034506E-01  0.000000E+00
  8.129670E-03 -3.270564E-03  5.000000E-01  8.211771E-03 -3.334269E-03  0.000000E+00  2.358713E-02 -4.070196E-03  7.589338E-15  1.694513E-01  0.000000E+00
  1.145600E-02 -3.762014E-03  5.000000E-01  1.157169E-02 -3.830682E-03  0.000000E+00  2.062200E-02 -2.552965E-03  5.284186E-15  1.243675E-01  0.000000E+00
  1.529970E-02 -4.132922E-03  5.000000E-01  1.545421E-02 -4.205335E-03  0.000000E+00  1.736269E-02 -1.203335E-03  1.964196E-15  7.705316E-02  0.000000E+00
  1.962420E-02 -4.287255E-03  5.000000E-01  1.982238E-02 -4.361227E-03  0.000000E+00  1.387004E-02 -2.414903E-04  2.908641E-16  5.936382E-02  0.000000E+00
  2.439810E-02 -4.244784E-03  5.000000E-01  2.464449E-02 -4.318327E-03  0.000000E+00  1.144402E-02  9.627187E-05 -1.463715E-16  1.042938E-01  0.000000E+00
  2.966100E-02 -4.199941E-03  5.000000E-01  2.996054E-02 -4.273031E-03  0.000000E+00  1.095361E-02  4.360243E-05 -1.273448E-16  1.637913E-01  0.000000E+00
  3.543640E-02 -4.217406E-03  5.000000E-01  3.579427E-02 -4.290673E-03  0.000000E+00  1.165308E-02 -7.093709E-05 -4.644278E-17  1.765411E-01  0.000000E+00
  4.172970E-02 -4.276697E-03  5.000000E-01  4.215112E-02 -4.350562E-03  0.000000E+00  1.239841E-02 -1.153487E-04 -3.639212E-18  1.569563E-01  0.000000E+00
  4.854440E-02 -4.336675E-03  5.000000E-01  4.903464E-02 -4.411146E-03  0.000000E+00  1.271928E-02 -5.997483E-05  5.330201E-18  1.322793E-01  0.000000E+00
  5.588220E-02 -4.339735E-03  5.000000E-01  5.644654E-02 -4.414237E-03  0.000000E+00  1.267108E-02  5.465343E-05  3.903214E-18  1.146202E-01  0.000000E+00
  6.375220E-02 -4.266116E-03  5.000000E-01  6.439602E-02 -4.339874E-03  0.000000E+00  1.248654E-02  1.617208E-04  1.588650E-18  1.075575E-01  0.000000E+00
  7.217040E-02 -4.125652E-03  5.000000E-01  7.289923E-02 -4.197992E-03  0.000000E+00  1.235475E-02  2.335390E-04 -9.575521E-19  1.065495E-01  0.000000E+00
  8.115500E-02 -3.936529E-03  5.000000E-01  8.197457E-02 -4.006959E-03  0.000000E+00  1.232428E-02  2.844054E-04 -1.011726E-18  1.047651E-01  0.000000E+00
  9.072040E-02 -3.697781E-03  5.000000E-01  9.163657E-02 -3.765800E-03  0.000000E+00  1.233777E-02  3.391968E-04 -6.366348E-19  9.892406E-02  0.000000E+00
  1.008780E-01 -3.392946E-03  5.000000E-01  1.018967E-01 -3.457887E-03  0.000000E+00  1.232596E-02  4.077918E-04  7.817555E-19  9.128226E-02  0.000000E+00
  1.116380E-01 -3.003277E-03  5.000000E-01  1.127654E-01 -3.064283E-03  0.000000E+00  1.224976E-02  4.903280E-04  2.921216E-18  8.458446E-02  0.000000E+00
  1.230100E-01 -2.504231E-03  5.000000E-01  1.242523E-01 -2.560196E-03  0.000000E+00  1.208190E-02  5.852885E-04  1.848269E-18  7.981972E-02  0.000000E+00
  1.350030E-01 -1.867627E-03  5.000000E-01  1.363664E-01 -1.917163E-03  0.000000E+00  1.179472E-02  6.882505E-04 -1.193230E-19  7.787059E-02  0.000000E+00
  1.350030E-01 -1.867627E-03  5.000000E-01  1.363664E-01 -1.917163E-03  0.000000E+00  1.179472E-02  6.882505E-04 -1.193230E-19  7.787059E-02  0.000000E+00
  1.476220E-01 -1.062737E-03  5.000000E-01  1.491128E-01 -1.104145E-03  0.000000E+00  1.137034E-02  7.915971E-04  6.359882E-19  8.002737E-02  0.000000E+00
  1.608730E-01 -5.920062E-05  5.000000E-01  1.624976E-01 -9.047443E-05  0.000000E+00  1.081674E-02  8.851900E-04  1.052628E-18  8.773076E-02  0.000000E+00
  1.747560E-01  1.166939E-03  5.000000E-01  1.765208E-01  1.148048E-03  0.000000E+00  1.017638E-02  9.567686E-04  7.308485E-19  1.018532E-01  0.000000E+00
  1.892730E-01  2.619961E-03  5.000000E-01  1.911844E-01  2.615744E-03  0.000000E+00  9.523945E-03  9.910237E-04  1.918311E-18  1.223994E-01  0.000000E+00
  2.044180E-01  4.262441E-03  5.000000E-01  2.064824E-01  4.274810E-03  0.000000E+00  8.961753E-03  9.736374E-04  3.784897E-18  1.499371E-01  0.000000E+00
  2.201880E-01  5.981042E-03  5.000000E-01  2.224116E-01  6.010768E-03  0.000000E+00  8.568692E-03  9.136838E-04  2.205258E-18  1.797972E-01  0.000000E+00
  2.365750E-01  7.684664E-03  5.000000E-01  2.389641E-01  7.731594E-03  0.000000E+00  8.337726E-03  8.393355E-04 -3.029969E-19  2.031531E-01  0.000000E+00
  2.535710E-01  9.335651E-03  5.000000E-01  2.561318E-01  9.399254E-03  0.000000E+00  8.210332E-03  7.656658E-04 -6.678698E-19  2.186030E-01  0.000000E+00
  2.711570E-01  1.090739E-02  5.000000E-01  2.738954E-01  1.098686E-02  0.000000E+00  8.143093E-03  6.939907E-04 -1.450521E-18  2.297160E-01  0.000000E+00
  2.893100E-01  1.237980E-02  5.000000E-01  2.922317E-01  1.247414E-02  0.000000E+00  8.116927E-03  6.242853E-04 -1.055724E-18  2.383782E-01  0.000000E+00
  3.080020E-01  1.373874E-02  5.000000E-01  3.111124E-01  1.384680E-02  0.000000E+00  8.116160E-03  5.592788E-04 -1.009708E-18  2.444235E-01  0.000000E+00
  3.271950E-01  1.498762E-02  5.000000E-01  3.304993E-01  1.510830E-02  0.000000E+00  8.121537E-03  5.017826E-04 -1.345920E-18  2.477475E-01  0.000000E+00
  3.468470E-01  1.613741E-02  5.000000E-01  3.503497E-01  1.626970E-02  0.000000E+00  8.121762E-03  4.502931E-04 -8.783145E-19  2.497743E-01  0.000000E+00
  3.669110E-01  1.718902E-02  5.000000E-01  3.706164E-01  1.733193E-02  0.000000E+00  8.118186E-03  4.022485E-04 -6.316022E-19  2.515727E-01  0.000000E+00
  3.873360E-01  1.814242E-02  5.000000E-01  3.912476E-01  1.829496E-02  0.000000E+00  8.116061E-03  3.567660E-04 -4.691583E-20  2.529364E-01  0.000000E+00
  4.080670E-01  1.899715E-02  5.000000E-01  4.121880E-01  1.915832E-02  0.000000E+00  8.119627E-03  3.124493E-04 -6.634275E-19  2.537930E-01  0.000000E+00
  4.290470E-01  1.974712E-02  5.000000E-01  4.333799E-01  1.991586E-02  0.000000E+00  8.131728E-03  2.680450E-04 -5.393597E-19  2.542926E-01  0.000000E+00
  4.502140E-01  2.038606E-02  5.000000E-01  4.547606E-01  2.056125E-02  0.000000E+00  8.149732E-03  2.251113E-04 -3.564083E-19  2.541039E-01  0.000000E+00
  4.715070E-01  2.091914E-02  5.000000E-01  4.762687E-01  2.109972E-02  0.000000E+00  8.162238E-03  1.872883E-04  2.248213E-19  2.528023E-01  0.000000E+00
  4.928620E-01  2.136418E-02  5.000000E-01  4.978393E-01  2.154926E-02  0.000000E+00  8.154501E-03  1.566098E-04  1.694321E-18  2.508864E-01  0.000000E+00
  5.142140E-01  2.173965E-02  5.000000E-01  5.194069E-01  2.192852E-02  0.000000E+00  8.116798E-03  1.330064E-04  4.370238E-19  2.493841E-01  0.000000E+00
  5.355000E-01  2.206277E-02  5.000000E-01  5.409079E-01  2.225490E-02  0.000000E+00  8.046086E-03  1.160850E-04 -7.403160E-19  2.486461E-01  0.000000E+00
  5.566560E-01  2.235152E-02  5.000000E-01  5.622776E-01  2.254656E-02  0.000000E+00  7.947367E-03  1.023200E-04  2.661717E-18  2.490099E-01  0.000000E+00
  4.727610E-01  7.069747E-02  5.000000E-01  4.775353E-01  7.138075E-02  0.000000E+00  1.235783E-02 -1.077071E-03  1.483663E-19 -5.393442E-01  0.000000E+00
  4.515970E-01  7.247705E-02  5.000000E-01  4.561576E-01  7.317830E-02  0.000000E+00  1.293572E-02 -1.032174E-03 -5.795159E-20 -5.746453E-01  0.000000E+00
  4.305020E-01  7.407498E-02  5.000000E-01  4.348496E-01  7.479237E-02  0.000000E+00  1.352714E-02 -9.595035E-04 -1.056371E-18 -6.071536E-01  0.000000E+00
  4.095340E-01  7.546555E-02  5.000000E-01  4.136698E-01  7.619698E-02  0.000000E+00  1.409009E-02 -8.674667E-04 -6.069728E-19 -6.380077E-01  0.000000E+00
  3.887520E-01  7.664938E-02  5.000000E-01  3.926779E-01  7.739277E-02  0.000000E+00  1.461183E-02 -7.626307E-04 -7.142748E-19 -6.687135E-01  0.000000E+00
  3.682080E-01  7.762674E-02  5.000000E-01  3.719265E-01  7.838000E-02  0.000000E+00  1.510370E-02 -6.441371E-04 -6.020651E-19 -6.996548E-01  0.000000E+00
  3.479570E-01  7.839369E-02  5.000000E-01  3.514709E-01  7.915469E-02  0.000000E+00  1.558439E-02 -5.093821E-04 -1.065652E-19 -7.311565E-01  0.000000E+00
  3.280470E-01  7.894407E-02  5.000000E-01  3.313599E-01  7.971064E-02  0.000000E+00  1.607284E-02 -3.568832E-04 -1.113667E-19 -7.637508E-01  0.000000E+00
  3.085240E-01  7.927435E-02  5.000000E-01  3.116397E-01  8.004425E-02  0.000000E+00  1.658578E-02 -1.842739E-04 -3.099471E-19 -7.976967E-01  0.000000E+00
  2.894320E-01  7.937939E-02  5.000000E-01  2.923549E-01  8.015035E-02  0.000000E+00  1.713488E-02  1.386565E-05 -1.027913E-18 -8.329693E-01  0.000000E+00
  2.708110E-01  7.925106E-02  5.000000E-01  2.735459E-01  8.002072E-02  0.000000E+00  1.773024E-02  2.437929E-04 -4.949170E-19 -8.710363E-01  0.000000E+00
  2.526960E-01  7.888066E-02  5.000000E-01  2.552479E-01  7.964658E-02  0.000000E+00  1.839934E-02  5.134639E-04  3.067350E-19 -9.153542E-01  0.000000E+00
  2.351200E-01  7.826189E-02  5.000000E-01  2.374944E-01  7.902157E-02  0.000000E+00  1.919231E-02  8.491227E-04 -1.404802E-18 -9.654337E-01  0.000000E+00
  2.181120E-01  7.736312E-02  5.000000E-01  2.203147E-01  7.811372E-02  0.000000E+00  2.012862E-02  1.294999E-03 -3.055328E-18 -1.013540E+00  0.000000E+00
  2.017010E-01  7.612898E-02  5.000000E-01  2.037379E-01  7.686711E-02  0.000000E+00  2.114899E-02  1.865895E-03 -2.992443E-18 -1.054873E+00  0.000000E+00
  1.859190E-01  7.454010E-02  5.000000E-01  1.877966E-01  7.526218E-02  0.000000E+00  2.217169E-02  2.546897E-03 -1.980077E-18 -1.089834E+00  0.000000E+00
  1.707920E-01  7.259666E-02  5.000000E-01  1.725168E-01  7.329912E-02  0.000000E+00  2.314831E-02  3.338127E-03  2.286845E-20 -1.115786E+00  0.000000E+00
  1.563470E-01  7.029575E-02  5.000000E-01  1.579259E-01  7.097498E-02  0.000000E+00  2.403541E-02  4.246146E-03  3.029603E-19 -1.127330E+00  0.000000E+00
  1.426070E-01  6.763846E-02  5.000000E-01  1.440472E-01  6.829085E-02  0.000000E+00  2.476985E-02  5.253993E-03 -3.515382E-18 -1.120084E+00  0.000000E+00
  1.295900E-01  6.464066E-02  5.000000E-01  1.308987E-01  6.526277E-02  0.000000E+00  2.528282E-02  6.316205E-03 -6.917308E-18 -1.092231E+00  0.000000E+00
  1.173060E-01  6.133630E-02  5.000000E-01  1.184906E-01  6.192505E-02  0.000000E+00  2.552518E-02  7.376357E-03 -5.268129E-18 -1.043924E+00  0.000000E+00
  1.057600E-01  5.777060E-02  5.000000E-01  1.068280E-01  5.832334E-02  0.000000E+00  2.547982E-02  8.382256E-03 -1.510983E-18 -9.766590E-01  0.000000E+00
  9.495290E-02  5.399649E-02  5.000000E-01  9.591181E-02  5.451111E-02  0.000000E+00  2.516393E-02  9.289400E-03  8.737624E-19 -8.936465E-01  0.000000E+00
  8.487680E-02  5.007283E-02  5.000000E-01  8.573395E-02  5.054783E-02  0.000000E+00  2.462340E-02  1.006982E-02  4.863049E-18 -7.979308E-01  0.000000E+00
  8.487680E-02  5.007283E-02  5.000000E-01  8.573395E-02  5.054783E-02  0.000000E+00  2.462340E-02  1.006982E-02  4.863049E-18 -7.979308E-01  0.000000E+00
  7.552090E-02  4.605995E-02  5.000000E-01  7.628357E-02  4.649443E-02  0.000000E+00  2.390245E-02  1.070701E-02  7.890023E-18 -6.905824E-01  0.000000E+00
  6.687020E-02  4.201602E-02  5.000000E-01  6.754551E-02  4.240965E-02  0.000000E+00  2.302233E-02  1.116603E-02  8.350586E-18 -5.743540E-01  0.000000E+00
  5.889940E-02  3.800524E-02  5.000000E-01  5.949421E-02  3.835837E-02  0.000000E+00  2.201709E-02  1.140800E-02  8.192027E-18 -4.565551E-01  0.000000E+00
  5.157140E-02  3.409341E-02  5.000000E-01  5.209221E-02  3.440704E-02  0.000000E+00  2.097944E-02  1.145627E-02  7.403560E-18 -3.456462E-01  0.000000E+00
  4.484650E-02  3.033456E-02  5.000000E-01  4.529940E-02  3.061023E-02  0.000000E+00  2.005047E-02  1.142849E-02  5.649250E-18 -2.460073E-01  0.000000E+00
  3.869820E-02  2.675943E-02  5.000000E-01  3.908901E-02  2.699899E-02  0.000000E+00  1.936500E-02  1.148825E-02 -1.801770E-18 -1.566937E-01  0.000000E+00
  3.311550E-02  2.337943E-02  5.000000E-01  3.344993E-02  2.358485E-02  0.000000E+00  1.898438E-02  1.175241E-02 -1.768413E-17 -7.245491E-02  0.000000E+00
  2.809130E-02  2.020145E-02  5.000000E-01  2.837499E-02  2.037479E-02  0.000000E+00  1.876070E-02  1.218241E-02 -4.572431E-17  2.225283E-02  0.000000E+00
  2.362330E-02  1.722879E-02  5.000000E-01  2.386187E-02  1.737210E-02  0.000000E+00  1.829278E-02  1.242049E-02 -9.960087E-17  1.376829E-01  0.000000E+00
  1.966610E-02  1.448609E-02  5.000000E-01  1.986470E-02  1.460170E-02  0.000000E+00  1.735717E-02  1.197905E-02 -1.630954E-16  2.475676E-01  0.000000E+00
  1.609460E-02  1.202942E-02  5.000000E-01  1.625714E-02  1.212023E-02  0.000000E+00  1.627523E-02  1.095743E-02 -8.804781E-17  3.242447E-01  0.000000E+00
  1.282740E-02  9.879062E-03  5.000000E-01  1.295694E-02  9.948152E-03  0.000000E+00  1.563745E-02  1.006578E-02  5.621078E-16  3.702444E-01  0.000000E+00
  9.860990E-03  8.013992E-03  5.000000E-01  9.960575E-03  8.064248E-03  0.000000E+00  1.587165E-02  9.946835E-03  2.478250E-15  4.036685E-01  0.000000E+00
  7.251350E-03  6.385165E-03  5.000000E-01  7.324581E-03  6.418971E-03  0.000000E+00  1.708548E-02  1.085851E-02  5.629466E-15  4.391525E-01  0.000000E+00
  5.038810E-03  4.956756E-03  5.000000E-01  5.089697E-03  4.976138E-03  0.000000E+00  1.920776E-02  1.288909E-02  6.482246E-15  4.792155E-01  0.000000E+00
  3.239710E-03  3.710104E-03  5.000000E-01  3.272428E-03  3.716895E-03  0.000000E+00  2.195485E-02  1.625279E-02 -6.193704E-15  5.304081E-01  0.000000E+00
  1.861880E-03  2.634607E-03  5.000000E-01  1.880684E-03  2.630537E-03  0.000000E+00  2.414658E-02  2.092047E-02 -5.282014E-14  6.099717E-01  0.000000E+00
  9.013910E-04  1.728232E-03  5.000000E-01  9.104951E-04  1.715009E-03  0.000000E+00  2.277535E-02  2.499957E-02 -1.535546E-13  7.418754E-01  0.000000E+00
  3.295630E-04  9.990158E-04  5.000000E-01  3.328923E-04  9.784287E-04  0.000000E+00  1.474423E-02  2.215250E-02 -3.041485E-13  9.147664E-01  0.000000E+00
  7.194000E-05  4.633848E-04  5.000000E-01  7.266763E-05  4.373885E-04  0.000000E+00  3.895214E-03  5.485685E-03 -4.537926E-13  1.012180E+00  0.000000E+00
  4.516100E-06  1.386753E-04  5.000000E-01  4.562831E-06  1.093998E-04  0.000000E+00 -1.399576E-03 -1.445294E-02 -5.303196E-13  9.357984E-01  0.000000E+00
 -1.112850E-09  3.036926E-05  5.000000E-01  0.000000E+00  0.000000E+00  0.000000E+00 -1.247311E-03 -1.520448E-02 -5.403589E-13  8.460019E-01  0.000000E+00