 Title = "ADflow Slice Data"
Variables =  "CoordinateX"  "CoordinateY"  "CoordinateZ"  "XoC"  "YoC"  "ZoC" "VelocityX" "VelocityY" "VelocityZ" "CoefPressure" "Mach" 
Zone T= "Slice_0001 None Absolute Regular z = 0.50000000"
 Nodes =          192  Elements=          184  ZONETYPE=FELINESEG
 DATAPACKING=POINT
  5.566560E-01  2.093601E-02  5.000000E-01  5.622775E-01  2.114321E-02  0.000000E+00  7.819331E-03  1.627134E-04 -1.691108E-18  2.400892E-01  0.000000E+00
  5.776220E-01  2.141908E-02  5.000000E-01  5.834552E-01  2.163116E-02  0.000000E+00  7.542606E-03  1.706356E-04 -1.315237E-19  2.468789E-01  0.000000E+00
  5.983370E-01  2.188203E-02  5.000000E-01  6.043794E-01  2.209878E-02  0.000000E+00  7.327132E-03  1.436960E-04  1.065624E-18  2.594930E-01  0.000000E+00
  6.187480E-01  2.222262E-02  5.000000E-01  6.249965E-01  2.244281E-02  0.000000E+00  7.244520E-03  8.448007E-05  1.807043E-18  2.708986E-01  0.000000E+00
  6.388030E-01  2.235342E-02  5.000000E-01  6.452541E-01  2.257494E-02  0.000000E+00  7.319719E-03 -5.154319E-06  1.263921E-18  2.778060E-01  0.000000E+00
  6.584530E-01  2.220272E-02  5.000000E-01  6.651025E-01  2.242271E-02  0.000000E+00  7.544162E-03 -1.200351E-04  7.268577E-19  2.801183E-01  0.000000E+00
  6.776550E-01  2.174309E-02  5.000000E-01  6.844984E-01  2.195844E-02  0.000000E+00  7.856804E-03 -2.291646E-04  7.362089E-20  2.742811E-01  0.000000E+00
  6.963720E-01  2.109855E-02  5.000000E-01  7.034044E-01  2.130739E-02  0.000000E+00  8.144987E-03 -2.946392E-04 -1.416078E-18  2.595875E-01  0.000000E+00
  7.145680E-01  2.041042E-02  5.000000E-01  7.217842E-01  2.061232E-02  0.000000E+00  8.308940E-03 -3.066864E-04 -1.088851E-18  2.435100E-01  0.000000E+00
  7.322140E-01  1.977729E-02  5.000000E-01  7.396084E-01  1.997279E-02  0.000000E+00  8.304037E-03 -2.761524E-04 -4.043739E-19  2.321778E-01  0.000000E+00
  7.492860E-01  1.925629E-02  5.000000E-01  7.568528E-01  1.944652E-02  0.000000E+00  8.132348E-03 -2.195833E-04 -2.810424E-19  2.274473E-01  0.000000E+00
  7.657630E-01  1.887110E-02  5.000000E-01  7.734962E-01  1.905744E-02  0.000000E+00  7.824528E-03 -1.532623E-04 -3.496749E-19  2.285903E-01  0.000000E+00
  7.816300E-01  1.862209E-02  5.000000E-01  7.895234E-01  1.880592E-02  0.000000E+00  7.437790E-03 -9.974752E-05 -7.061123E-19  2.350498E-01  0.000000E+00
  7.968740E-01  1.845776E-02  5.000000E-01  8.049214E-01  1.863994E-02  0.000000E+00  7.071213E-03 -8.940326E-05 -1.655191E-18  2.486916E-01  0.000000E+00
  8.114890E-01  1.824674E-02  5.000000E-01  8.196840E-01  1.842678E-02  0.000000E+00  6.826690E-03 -1.298488E-04 -1.420943E-18  2.655610E-01  0.000000E+00
  8.254710E-01  1.791144E-02  5.000000E-01  8.338072E-01  1.808810E-02  0.000000E+00  6.734942E-03 -2.020470E-04  6.650371E-19  2.775386E-01  0.000000E+00
  8.388180E-01  1.742831E-02  5.000000E-01  8.472889E-01  1.760009E-02  0.000000E+00  6.763053E-03 -2.886350E-04  8.692652E-19  2.829227E-01  0.000000E+00
  8.515320E-01  1.680442E-02  5.000000E-01  8.601313E-01  1.696990E-02  0.000000E+00  6.870111E-03 -3.804596E-04 -8.885907E-19  2.838437E-01  0.000000E+00
  8.636180E-01  1.606085E-02  5.000000E-01  8.723394E-01  1.621882E-02  0.000000E+00  7.029842E-03 -4.735274E-04 -1.630641E-18  2.819870E-01  0.000000E+00
  8.750810E-01  1.522355E-02  5.000000E-01  8.839181E-01  1.537306E-02  0.000000E+00  7.225224E-03 -5.659421E-04 -1.866577E-18  2.779979E-01  0.000000E+00
  8.859290E-01  1.431808E-02  5.000000E-01  8.948757E-01  1.445845E-02  0.000000E+00  7.442997E-03 -6.565904E-04 -1.497273E-18  2.722977E-01  0.000000E+00
  8.961710E-01  1.336739E-02  5.000000E-01  9.052211E-01  1.349816E-02  0.000000E+00  7.673596E-03 -7.447346E-04  2.245907E-19  2.653171E-01  0.000000E+00
  9.058170E-01  1.239166E-02  5.000000E-01  9.149645E-01  1.251258E-02  0.000000E+00  7.911184E-03 -8.299588E-04  1.313719E-18  2.573841E-01  0.000000E+00
  9.148770E-01  1.140813E-02  5.000000E-01  9.241160E-01  1.151911E-02  0.000000E+00  8.152309E-03 -9.119836E-04  8.723721E-19  2.487075E-01  0.000000E+00
  9.148770E-01  1.140813E-02  5.000000E-01  9.241160E-01  1.151911E-02  0.000000E+00  8.152309E-03 -9.119836E-04  8.723721E-19  2.487075E-01  0.000000E+00
  9.233640E-01  1.043140E-02  5.000000E-01  9.326887E-01  1.053252E-02  0.000000E+00  8.395062E-03 -9.907877E-04 -3.252056E-19  2.394817E-01  0.000000E+00
  9.312880E-01  9.473594E-03  5.000000E-01  9.406928E-01  9.565037E-03  0.000000E+00  8.638814E-03 -1.066553E-03 -9.511843E-19  2.298705E-01  0.000000E+00
  9.386620E-01  8.544633E-03  5.000000E-01  9.481412E-01  8.626695E-03  0.000000E+00  8.883592E-03 -1.139502E-03 -1.817927E-18  2.199762E-01  0.000000E+00
  9.454960E-01  7.652757E-03  5.000000E-01  9.550442E-01  7.725813E-03  0.000000E+00  9.129476E-03 -1.209775E-03 -1.717523E-18  2.098672E-01  0.000000E+00
  9.518040E-01  6.804518E-03  5.000000E-01  9.614159E-01  6.869008E-03  0.000000E+00  9.376993E-03 -1.277660E-03 -3.841777E-19  1.996329E-01  0.000000E+00
  9.575950E-01  6.005382E-03  5.000000E-01  9.672654E-01  6.061801E-03  0.000000E+00  9.627874E-03 -1.343617E-03  5.249612E-19  1.893367E-01  0.000000E+00
  9.628810E-01  5.259638E-03  5.000000E-01  9.726048E-01  5.308526E-03  0.000000E+00  9.885870E-03 -1.408318E-03  6.358563E-19  1.790166E-01  0.000000E+00
  9.676710E-01  4.570808E-03  5.000000E-01  9.774432E-01  4.612740E-03  0.000000E+00  1.015810E-02 -1.472967E-03  5.239708E-19  1.687390E-01  0.000000E+00
  9.719750E-01  3.941662E-03  5.000000E-01  9.817906E-01  3.977240E-03  0.000000E+00  1.045424E-02 -1.539060E-03  6.187000E-19  1.585635E-01  0.000000E+00
  9.758020E-01  3.374366E-03  5.000000E-01  9.856563E-01  3.404216E-03  0.000000E+00  1.077853E-02 -1.607395E-03 -1.247450E-18  1.485452E-01  0.000000E+00
  9.791590E-01  2.870716E-03  5.000000E-01  9.890472E-01  2.895479E-03  0.000000E+00  1.110885E-02 -1.674995E-03 -2.288061E-18  1.386227E-01  0.000000E+00
  9.820540E-01  2.432019E-03  5.000000E-01  9.919714E-01  2.452352E-03  0.000000E+00  1.137672E-02 -1.732294E-03  4.907244E-18  1.292734E-01  0.000000E+00
  9.844930E-01  2.059345E-03  5.000000E-01  9.944351E-01  2.075915E-03  0.000000E+00  1.144943E-02 -1.755162E-03  2.786196E-17  1.214149E-01  0.000000E+00
  9.864820E-01  1.753445E-03  5.000000E-01  9.964441E-01  1.766925E-03  0.000000E+00  1.099297E-02 -1.683825E-03  4.805978E-17  1.112704E-01  0.000000E+00
  9.880240E-01  1.515000E-03  5.000000E-01  9.980017E-01  1.526072E-03  0.000000E+00  9.516988E-03 -1.485119E-03 -4.215114E-17  9.402365E-02  0.000000E+00
  9.891220E-01  1.344427E-03  5.000000E-01  9.991108E-01  1.353777E-03  0.000000E+00  8.842162E-03 -1.482508E-03 -5.051529E-16  1.102783E-01  0.000000E+00
  9.897810E-01  1.241921E-03  5.000000E-01  9.997765E-01  1.250235E-03  0.000000E+00  1.589429E-02 -1.268207E-03 -1.520519E-15  1.977958E-01  0.000000E+00
  9.900000E-01  1.207764E-03  5.000000E-01  9.999977E-01  1.215734E-03  0.000000E+00  1.306788E-02 -2.424133E-03 -1.978323E-15 -4.694805E-02  0.000000E+00
  9.900000E-01  1.393984E-03  5.000000E-01  9.999977E-01  1.403834E-03  0.000000E+00  1.197404E-03 -1.416463E-02 -1.246751E-15 -1.878742E-01  0.000000E+00
  9.900000E-01  1.580195E-03  5.000000E-01  9.999977E-01  1.591925E-03  0.000000E+00 -7.306796E-04 -1.499579E-02 -3.134111E-16 -9.884820E-03  0.000000E+00
  9.900000E-01  1.766415E-03  5.000000E-01  9.999977E-01  1.780026E-03  0.000000E+00 -4.253493E-04  2.001148E-03  4.534351E-16 -2.064729E-02  0.000000E+00
  9.900000E-01  1.952635E-03  5.000000E-01  9.999977E-01  1.968127E-03  0.000000E+00  7.373855E-04  2.471103E-03  1.532073E-15 -1.333936E-01  0.000000E+00
  9.900000E-01  2.138856E-03  5.000000E-01  9.999977E-01  2.156228E-03  0.000000E+00  7.358554E-03 -4.716108E-03  2.290286E-15 -4.358425E-02  0.000000E+00
  9.900000E-01  2.138856E-03  5.000000E-01  9.999977E-01  2.156228E-03  0.000000E+00  7.358554E-03 -4.716108E-03  2.290286E-15 -4.358425E-02  0.000000E+00
  9.897920E-01  2.190468E-03  5.000000E-01  9.997876E-01  2.208362E-03  0.000000E+00  7.952120E-03 -2.719745E-03  1.631883E-15  8.457903E-02  0.000000E+00
  9.891660E-01  2.345294E-03  5.000000E-01  9.991553E-01  2.364751E-03  0.000000E+00  2.613390E-03 -5.631085E-04  5.337957E-16  1.777683E-02  0.000000E+00
  9.881230E-01  2.603034E-03  5.000000E-01  9.981017E-01  2.625094E-03  0.000000E+00  2.366868E-03 -5.811334E-04  4.686336E-17  5.852234E-03  0.000000E+00
  9.866580E-01  2.963464E-03  5.000000E-01  9.966219E-01  2.989164E-03  0.000000E+00  2.847145E-03 -7.065924E-04 -5.458639E-17  1.051822E-02  0.000000E+00
  9.847700E-01  3.425986E-03  5.000000E-01  9.947149E-01  3.456356E-03  0.000000E+00  2.992810E-03 -7.307853E-04 -3.689811E-17  7.218577E-03  0.000000E+00
  9.824550E-01  3.989934E-03  5.000000E-01  9.923765E-01  4.026000E-03  0.000000E+00  3.074275E-03 -7.453389E-04 -1.330477E-17  3.220910E-04  0.000000E+00
  9.797070E-01  4.654469E-03  5.000000E-01  9.896007E-01  4.697246E-03  0.000000E+00  3.205277E-03 -7.718791E-04 -2.912777E-18 -7.566267E-03  0.000000E+00
  9.765220E-01  5.418433E-03  5.000000E-01  9.863836E-01  5.468925E-03  0.000000E+00  3.389286E-03 -8.089116E-04  1.935547E-19 -1.679113E-02  0.000000E+00
  9.728930E-01  6.280493E-03  5.000000E-01  9.827179E-01  6.339690E-03  0.000000E+00  3.622171E-03 -8.554424E-04 -1.744349E-20 -2.746556E-02  0.000000E+00
  9.688130E-01  7.238960E-03  5.000000E-01  9.785967E-01  7.307837E-03  0.000000E+00  3.898247E-03 -9.097043E-04 -2.703539E-19 -3.945535E-02  0.000000E+00
  9.642740E-01  8.291828E-03  5.000000E-01  9.740119E-01  8.371337E-03  0.000000E+00  4.209839E-03 -9.692386E-04 -5.456381E-20 -5.263054E-02  0.000000E+00
  9.592670E-01  9.436682E-03  5.000000E-01  9.689543E-01  9.527753E-03  0.000000E+00  4.550491E-03 -1.031966E-03  2.348707E-19 -6.694110E-02  0.000000E+00
  9.537850E-01  1.067056E-02  5.000000E-01  9.634170E-01  1.077409E-02  0.000000E+00  4.915657E-03 -1.096090E-03  1.576990E-19 -8.223827E-02  0.000000E+00
  9.478160E-01  1.199003E-02  5.000000E-01  9.573877E-01  1.210688E-02  0.000000E+00  5.301637E-03 -1.160037E-03 -1.408178E-19 -9.842428E-02  0.000000E+00
  9.413520E-01  1.339101E-02  5.000000E-01  9.508584E-01  1.352201E-02  0.000000E+00  5.705699E-03 -1.222451E-03  1.710750E-18 -1.153814E-01  0.000000E+00
  9.343800E-01  1.486875E-02  5.000000E-01  9.438160E-01  1.501468E-02  0.000000E+00  6.125255E-03 -1.281963E-03  2.349181E-18 -1.329480E-01  0.000000E+00
  9.268920E-01  1.641737E-02  5.000000E-01  9.362524E-01  1.657893E-02  0.000000E+00  6.557703E-03 -1.337174E-03  9.858810E-19 -1.509885E-01  0.000000E+00
  9.188750E-01  1.803040E-02  5.000000E-01  9.281544E-01  1.820825E-02  0.000000E+00  7.000322E-03 -1.386581E-03  4.956827E-19 -1.692908E-01  0.000000E+00
  9.103190E-01  1.970003E-02  5.000000E-01  9.195120E-01  1.989475E-02  0.000000E+00  7.449825E-03 -1.428609E-03 -3.668542E-19 -1.876552E-01  0.000000E+00
  9.012130E-01  2.141732E-02  5.000000E-01  9.103140E-01  2.162938E-02  0.000000E+00  7.902277E-03 -1.461450E-03 -3.475969E-19 -2.057987E-01  0.000000E+00
  8.915460E-01  2.317182E-02  5.000000E-01  9.005494E-01  2.340159E-02  0.000000E+00  8.352428E-03 -1.483215E-03  2.922106E-19 -2.234199E-01  0.000000E+00
  8.813080E-01  2.495185E-02  5.000000E-01  8.902080E-01  2.519960E-02  0.000000E+00  8.792994E-03 -1.491867E-03 -2.356822E-20 -2.400925E-01  0.000000E+00
  8.704900E-01  2.674409E-02  5.000000E-01  8.792808E-01  2.700994E-02  0.000000E+00  9.213062E-03 -1.485251E-03  3.490191E-20 -2.552421E-01  0.000000E+00
  8.704900E-01  2.674409E-02  5.000000E-01  8.792808E-01  2.700994E-02  0.000000E+00  9.213062E-03 -1.485251E-03  3.490191E-20 -2.552421E-01  0.000000E+00
  8.590830E-01  2.853434E-02  5.000000E-01  8.677586E-01  2.881827E-02  0.000000E+00  9.598099E-03 -1.461860E-03  6.851006E-19 -2.683773E-01  0.000000E+00
  8.470810E-01  3.030859E-02  5.000000E-01  8.556354E-01  3.061044E-02  0.000000E+00  9.931631E-03 -1.421343E-03  2.902013E-19 -2.789675E-01  0.000000E+00
  8.344780E-01  3.205441E-02  5.000000E-01  8.429051E-01  3.237389E-02  0.000000E+00  1.019381E-02 -1.365012E-03 -1.314126E-18 -2.860420E-01  0.000000E+00
  8.212700E-01  3.376378E-02  5.000000E-01  8.295637E-01  3.410052E-02  0.000000E+00  1.035757E-02 -1.297299E-03 -8.392197E-19 -2.881946E-01  0.000000E+00
  8.074550E-01  3.543876E-02  5.000000E-01  8.156092E-01  3.579241E-02  0.000000E+00  1.039384E-02 -1.228617E-03  3.420404E-19 -2.851113E-01  0.000000E+00
  7.930350E-01  3.710043E-02  5.000000E-01  8.010436E-01  3.747086E-02  0.000000E+00  1.030000E-02 -1.176917E-03  1.251621E-19 -2.805067E-01  0.000000E+00
  7.780130E-01  3.879984E-02  5.000000E-01  7.858699E-01  3.918744E-02  0.000000E+00  1.013299E-02 -1.157027E-03  4.968973E-19 -2.806107E-01  0.000000E+00
  7.623950E-01  4.059853E-02  5.000000E-01  7.700942E-01  4.100430E-02  0.000000E+00  9.987988E-03 -1.160569E-03  2.310378E-18 -2.863365E-01  0.000000E+00
  7.461930E-01  4.249895E-02  5.000000E-01  7.537286E-01  4.292390E-02  0.000000E+00  9.931403E-03 -1.170409E-03  3.264995E-18 -2.956454E-01  0.000000E+00
  7.294180E-01  4.448481E-02  5.000000E-01  7.367841E-01  4.492982E-02  0.000000E+00  9.984972E-03 -1.181097E-03  1.978609E-18 -3.087592E-01  0.000000E+00
  7.120900E-01  4.653204E-02  5.000000E-01  7.192812E-01  4.699772E-02  0.000000E+00  1.014800E-02 -1.189096E-03 -8.037269E-20 -3.253112E-01  0.000000E+00
  6.942280E-01  4.860708E-02  5.000000E-01  7.012388E-01  4.909372E-02  0.000000E+00  1.039906E-02 -1.187275E-03  5.197270E-20 -3.433890E-01  0.000000E+00
  6.758590E-01  5.066874E-02  5.000000E-01  6.826843E-01  5.117620E-02  0.000000E+00  1.069066E-02 -1.166937E-03  1.238214E-18 -3.592520E-01  0.000000E+00
  6.570120E-01  5.267159E-02  5.000000E-01  6.636469E-01  5.319928E-02  0.000000E+00  1.095206E-02 -1.126699E-03  4.031433E-19 -3.697271E-01  0.000000E+00
  6.377220E-01  5.459251E-02  5.000000E-01  6.441621E-01  5.513959E-02  0.000000E+00  1.111954E-02 -1.081424E-03 -6.440609E-19 -3.762209E-01  0.000000E+00
  6.180260E-01  5.646209E-02  5.000000E-01  6.242672E-01  5.702805E-02  0.000000E+00  1.117508E-02 -1.047677E-03 -2.867909E-19 -3.814145E-01  0.000000E+00
  5.979670E-01  5.832011E-02  5.000000E-01  6.040057E-01  5.890484E-02  0.000000E+00  1.114477E-02 -1.031806E-03  3.240968E-19 -3.868905E-01  0.000000E+00
  5.775910E-01  6.020635E-02  5.000000E-01  5.834239E-01  6.081012E-02  0.000000E+00  1.108297E-02 -1.037433E-03  1.743126E-19 -3.963450E-01  0.000000E+00
  5.569470E-01  6.215816E-02  5.000000E-01  5.625714E-01  6.278165E-02  0.000000E+00  1.107335E-02 -1.066203E-03 -5.312784E-19 -4.151438E-01  0.000000E+00
  5.360860E-01  6.420066E-02  5.000000E-01  5.414998E-01  6.484477E-02  0.000000E+00  1.121286E-02 -1.106302E-03  7.503825E-19 -4.446949E-01  0.000000E+00
  5.150640E-01  6.629034E-02  5.000000E-01  5.202655E-01  6.695555E-02  0.000000E+00  1.156510E-02 -1.135748E-03  7.819231E-19 -4.821502E-01  0.000000E+00
  4.939370E-01  6.833965E-02  5.000000E-01  4.989251E-01  6.902556E-02  0.000000E+00  1.213503E-02 -1.138138E-03 -2.117297E-19 -5.251198E-01  0.000000E+00
  4.727610E-01  7.025928E-02  5.000000E-01  4.775353E-01  7.096457E-02  0.000000E+00  1.287807E-02 -1.098799E-03  4.374956E-19 -5.691882E-01  0.000000E+00
  5.770140E-06 -1.083054E-04  5.000000E-01  5.829535E-06 -1.136264E-04  0.000000E+00  1.286779E-03 -6.292086E-03 -5.568935E-13  9.395219E-01  0.000000E+00
  9.104010E-05 -4.436864E-04  5.000000E-01  9.196061E-05 -4.523942E-04  0.000000E+00  1.320368E-02 -2.162452E-02 -4.760350E-13  9.880223E-01  0.000000E+00
  4.796980E-04 -9.741885E-04  5.000000E-01  4.845434E-04 -9.882538E-04  0.000000E+00  2.975469E-02 -2.735731E-02 -3.165267E-13  7.576476E-01  0.000000E+00
  1.456590E-03 -1.613194E-03  5.000000E-01  1.471301E-03 -1.633712E-03  0.000000E+00  3.584580E-02 -1.914408E-02 -1.533843E-13  4.578427E-01  0.000000E+00
  3.096410E-03 -2.267266E-03  5.000000E-01  3.127681E-03 -2.294390E-03  0.000000E+00  3.204916E-02 -1.120965E-02 -4.714805E-14  3.177708E-01  0.000000E+00
  5.335170E-03 -2.913875E-03  5.000000E-01  5.389049E-03 -2.947529E-03  0.000000E+00  2.722546E-02 -7.065986E-03 -1.676669E-15  2.666644E-01  0.000000E+00
  8.129670E-03 -3.546269E-03  5.000000E-01  8.211770E-03 -3.586309E-03  0.000000E+00  2.387408E-02 -4.881898E-03  8.268116E-15  2.208881E-01  0.000000E+00
  1.145600E-02 -4.145356E-03  5.000000E-01  1.157169E-02 -4.191446E-03  0.000000E+00  2.112831E-02 -3.297477E-03  5.755611E-15  1.671930E-01  0.000000E+00
  1.529970E-02 -4.641218E-03  5.000000E-01  1.545421E-02 -4.692315E-03  0.000000E+00  1.802650E-02 -1.826895E-03  2.147865E-15  1.113567E-01  0.000000E+00
  1.962420E-02 -4.934053E-03  5.000000E-01  1.982238E-02 -4.988108E-03  0.000000E+00  1.461104E-02 -7.145645E-04  3.189032E-16  8.421791E-02  0.000000E+00
  2.439810E-02 -5.040868E-03  5.000000E-01  2.464449E-02 -5.096001E-03  0.000000E+00  1.217016E-02 -2.768128E-04 -1.626071E-16  1.206941E-01  0.000000E+00
  2.966100E-02 -5.158958E-03  5.000000E-01  2.996054E-02 -5.215284E-03  0.000000E+00  1.162457E-02 -3.130758E-04 -1.422138E-16  1.737808E-01  0.000000E+00
  3.543640E-02 -5.354014E-03  5.000000E-01  3.579426E-02 -5.412310E-03  0.000000E+00  1.227888E-02 -4.496759E-04 -5.280391E-17  1.808940E-01  0.000000E+00
  4.172970E-02 -5.604230E-03  5.000000E-01  4.215112E-02 -5.665052E-03  0.000000E+00  1.300428E-02 -5.106260E-04 -3.889023E-18  1.556199E-01  0.000000E+00
  4.854440E-02 -5.866091E-03  5.000000E-01  4.903463E-02 -5.929558E-03  0.000000E+00  1.332468E-02 -4.502184E-04  9.898976E-18  1.250439E-01  0.000000E+00
  5.588220E-02 -6.078529E-03  5.000000E-01  5.644654E-02 -6.144141E-03  0.000000E+00  1.328550E-02 -3.129110E-04  7.056517E-18  1.015767E-01  0.000000E+00
  6.375220E-02 -6.218910E-03  5.000000E-01  6.439601E-02 -6.285940E-03  0.000000E+00  1.311566E-02 -1.770535E-04  4.711875E-19  8.923144E-02  0.000000E+00
  7.217040E-02 -6.294778E-03  5.000000E-01  7.289923E-02 -6.362574E-03  0.000000E+00  1.300544E-02 -7.783080E-05 -2.082138E-18  8.351113E-02  0.000000E+00
  8.115500E-02 -6.321929E-03  5.000000E-01  8.197456E-02 -6.389999E-03  0.000000E+00  1.300229E-02 -9.593282E-07 -1.688098E-18  7.731417E-02  0.000000E+00
  9.072040E-02 -6.295867E-03  5.000000E-01  9.163656E-02 -6.363674E-03  0.000000E+00  1.304237E-02  8.237620E-05  2.804139E-20  6.716099E-02  0.000000E+00
  1.008780E-01 -6.195458E-03  5.000000E-01  1.018967E-01 -6.262251E-03  0.000000E+00  1.304736E-02  1.847212E-04  1.963367E-18  5.545856E-02  0.000000E+00
  1.116380E-01 -5.996525E-03  5.000000E-01  1.127654E-01 -6.061309E-03  0.000000E+00  1.296894E-02  3.066580E-04  1.934921E-18  4.524443E-02  0.000000E+00
  1.230100E-01 -5.668290E-03  5.000000E-01  1.242522E-01 -5.729760E-03  0.000000E+00  1.277078E-02  4.457463E-04  6.620312E-19  3.777656E-02  0.000000E+00
  1.350030E-01 -5.175773E-03  5.000000E-01  1.363664E-01 -5.232269E-03  0.000000E+00  1.241806E-02  5.951357E-04 -1.496796E-19  3.423328E-02  0.000000E+00
  1.350030E-01 -5.175773E-03  5.000000E-01  1.363664E-01 -5.232269E-03  0.000000E+00  1.241806E-02  5.951357E-04 -1.496796E-19  3.423328E-02  0.000000E+00
  1.476220E-01 -4.481329E-03  5.000000E-01  1.491128E-01 -4.530812E-03  0.000000E+00  1.189189E-02  7.431946E-04  7.279488E-20  3.624478E-02  0.000000E+00
  1.608730E-01 -3.548710E-03  5.000000E-01  1.624976E-01 -3.588774E-03  0.000000E+00  1.121035E-02  8.748510E-04  1.155595E-18  4.555617E-02  0.000000E+00
  1.747560E-01 -2.351126E-03  5.000000E-01  1.765208E-01 -2.379097E-03  0.000000E+00  1.043851E-02  9.733208E-04  1.817032E-18  6.308111E-02  0.000000E+00
  1.892730E-01 -8.883148E-04  5.000000E-01  1.911844E-01 -9.015128E-04  0.000000E+00  9.682322E-03  1.020263E-03  1.498770E-18  8.853819E-02  0.000000E+00
  2.044180E-01  7.858077E-04  5.000000E-01  2.064823E-01  7.895161E-04  0.000000E+00  9.076895E-03  1.001463E-03 -1.372229E-19  1.221275E-01  0.000000E+00
  2.201880E-01  2.524609E-03  5.000000E-01  2.224116E-01  2.545877E-03  0.000000E+00  8.714458E-03  9.329606E-04 -1.783945E-18  1.571389E-01  0.000000E+00
  2.365750E-01  4.219751E-03  5.000000E-01  2.389641E-01  4.258137E-03  0.000000E+00  8.565178E-03  8.523935E-04 -1.213751E-18  1.821038E-01  0.000000E+00
  2.535710E-01  5.840301E-03  5.000000E-01  2.561317E-01  5.895053E-03  0.000000E+00  8.529522E-03  7.784017E-04 -7.140548E-19  1.960064E-01  0.000000E+00
  2.711570E-01  7.374341E-03  5.000000E-01  2.738953E-01  7.444585E-03  0.000000E+00  8.527910E-03  7.125704E-04 -1.431964E-18  2.043516E-01  0.000000E+00
  2.893100E-01  8.825781E-03  5.000000E-01  2.922316E-01  8.910683E-03  0.000000E+00  8.513001E-03  6.566444E-04 -1.233372E-18  2.102551E-01  0.000000E+00
  3.080020E-01  1.021454E-02  5.000000E-01  3.111124E-01  1.031346E-02  0.000000E+00  8.447582E-03  6.163026E-04 -6.840726E-19  2.142591E-01  0.000000E+00
  3.271950E-01  1.158676E-02  5.000000E-01  3.304992E-01  1.169954E-02  0.000000E+00  8.304362E-03  5.931149E-04 -3.751937E-19  2.169812E-01  0.000000E+00
  3.468470E-01  1.298987E-02  5.000000E-01  3.503497E-01  1.311682E-02  0.000000E+00  8.097070E-03  5.728834E-04 -3.718902E-19  2.224067E-01  0.000000E+00
  3.669110E-01  1.439947E-02  5.000000E-01  3.706163E-01  1.454066E-02  0.000000E+00  7.884987E-03  5.401725E-04  9.016130E-19  2.327033E-01  0.000000E+00
  3.873360E-01  1.576197E-02  5.000000E-01  3.912476E-01  1.591692E-02  0.000000E+00  7.730076E-03  4.922425E-04  3.536455E-19  2.445594E-01  0.000000E+00
  4.080670E-01  1.701679E-02  5.000000E-01  4.121879E-01  1.718441E-02  0.000000E+00  7.670003E-03  4.286549E-04  1.766656E-20  2.548389E-01  0.000000E+00
  4.290470E-01  1.809258E-02  5.000000E-01  4.333798E-01  1.827106E-02  0.000000E+00  7.720310E-03  3.478571E-04  1.172414E-18  2.627761E-01  0.000000E+00
  4.502140E-01  1.891696E-02  5.000000E-01  4.547606E-01  1.910377E-02  0.000000E+00  7.864250E-03  2.592816E-04  2.871447E-19  2.663856E-01  0.000000E+00
  4.715070E-01  1.949122E-02  5.000000E-01  4.762686E-01  1.968383E-02  0.000000E+00  8.038237E-03  1.846427E-04 -5.363669E-19  2.628379E-01  0.000000E+00
  4.928620E-01  1.989628E-02  5.000000E-01  4.978392E-01  2.009298E-02  0.000000E+00  8.160228E-03  1.383184E-04 -2.071810E-19  2.545070E-01  0.000000E+00
  5.142140E-01  2.021748E-02  5.000000E-01  5.194069E-01  2.041742E-02  0.000000E+00  8.173191E-03  1.228914E-04  1.090846E-18  2.466224E-01  0.000000E+00
  5.355000E-01  2.053757E-02  5.000000E-01  5.409078E-01  2.074074E-02  0.000000E+00  8.054174E-03  1.364502E-04 -3.754978E-19  2.412344E-01  0.000000E+00
  5.566560E-01  2.093601E-02  5.000000E-01  5.622775E-01  2.114321E-02  0.000000E+00  7.819331E-03  1.627134E-04 -1.691108E-18  2.400892E-01  0.000000E+00
  4.727610E-01  7.025928E-02  5.000000E-01  4.775353E-01  7.096457E-02  0.000000E+00  1.287807E-02 -1.098799E-03  4.374956E-19 -5.691882E-01  0.000000E+00
  4.515970E-01  7.196059E-02  5.000000E-01  4.561575E-01  7.268307E-02  0.000000E+00  1.369565E-02 -1.000739E-03 -1.958266E-20 -6.055303E-01  0.000000E+00
  4.305020E-01  7.336019E-02  5.000000E-01  4.348495E-01  7.409681E-02  0.000000E+00  1.443976E-02 -8.491357E-04 -1.389230E-18 -6.289002E-01  0.000000E+00
  4.095340E-01  7.444251E-02  5.000000E-01  4.136697E-01  7.519005E-02  0.000000E+00  1.498321E-02 -6.833684E-04 -1.582342E-18 -6.431704E-01  0.000000E+00
  3.887520E-01  7.526831E-02  5.000000E-01  3.926779E-01  7.602419E-02  0.000000E+00  1.529287E-02 -5.372924E-04 -1.501295E-18 -6.531759E-01  0.000000E+00
  3.682080E-01  7.589769E-02  5.000000E-01  3.719264E-01  7.665993E-02  0.000000E+00  1.541566E-02 -4.204691E-04 -7.975873E-19 -6.621905E-01  0.000000E+00
  3.479570E-01  7.638213E-02  5.000000E-01  3.514709E-01  7.714926E-02  0.000000E+00  1.544279E-02 -3.342375E-04  3.249251E-19 -6.763156E-01  0.000000E+00
  3.280470E-01  7.676515E-02  5.000000E-01  3.313598E-01  7.753615E-02  0.000000E+00  1.550007E-02 -2.699168E-04  1.155251E-18 -7.017911E-01  0.000000E+00
  3.085240E-01  7.706837E-02  5.000000E-01  3.116397E-01  7.784243E-02  0.000000E+00  1.571372E-02 -1.961405E-04  1.316560E-18 -7.380499E-01  0.000000E+00
  2.894320E-01  7.725059E-02  5.000000E-01  2.923549E-01  7.802649E-02  0.000000E+00  1.614783E-02 -7.905340E-05  6.922710E-20 -7.809541E-01  0.000000E+00
  2.708110E-01  7.725849E-02  5.000000E-01  2.735458E-01  7.803447E-02  0.000000E+00  1.679800E-02  9.653181E-05 -4.116471E-19 -8.297687E-01  0.000000E+00
  2.526960E-01  7.704583E-02  5.000000E-01  2.552479E-01  7.781966E-02  0.000000E+00  1.764495E-02  3.403509E-04 -1.459975E-18 -8.857701E-01  0.000000E+00
  2.351200E-01  7.657866E-02  5.000000E-01  2.374944E-01  7.734777E-02  0.000000E+00  1.867785E-02  6.783653E-04 -3.621185E-18 -9.456033E-01  0.000000E+00
  2.181120E-01  7.580641E-02  5.000000E-01  2.203146E-01  7.656773E-02  0.000000E+00  1.984721E-02  1.150919E-03 -3.376158E-18 -9.983774E-01  0.000000E+00
  2.017010E-01  7.466247E-02  5.000000E-01  2.037379E-01  7.541223E-02  0.000000E+00  2.102743E-02  1.755237E-03 -9.583545E-19 -1.039245E+00  0.000000E+00
  1.859190E-01  7.313828E-02  5.000000E-01  1.877965E-01  7.387265E-02  0.000000E+00  2.210729E-02  2.450791E-03  6.890388E-19 -1.072069E+00  0.000000E+00
  1.707920E-01  7.125400E-02  5.000000E-01  1.725168E-01  7.196934E-02  0.000000E+00  2.306308E-02  3.230028E-03  2.687419E-18 -1.096566E+00  0.000000E+00
  1.563470E-01  6.901598E-02  5.000000E-01  1.579259E-01  6.970872E-02  0.000000E+00  2.389885E-02  4.109794E-03  4.060029E-18 -1.107876E+00  0.000000E+00
  1.426070E-01  6.642719E-02  5.000000E-01  1.440471E-01  6.709379E-02  0.000000E+00  2.459030E-02  5.085819E-03  1.140765E-18 -1.101713E+00  0.000000E+00
  1.295900E-01  6.350182E-02  5.000000E-01  1.308987E-01  6.413888E-02  0.000000E+00  2.508880E-02  6.122717E-03 -3.040840E-18 -1.075915E+00  0.000000E+00
  1.173060E-01  6.027112E-02  5.000000E-01  1.184906E-01  6.087555E-02  0.000000E+00  2.534664E-02  7.169742E-03 -4.143308E-18 -1.030094E+00  0.000000E+00
  1.057600E-01  5.677770E-02  5.000000E-01  1.068280E-01  5.734685E-02  0.000000E+00  2.533663E-02  8.175520E-03 -1.801274E-18 -9.652652E-01  0.000000E+00
  9.495290E-02  5.307248E-02  5.000000E-01  9.591180E-02  5.360421E-02  0.000000E+00  2.506314E-02  9.092612E-03  5.896556E-19 -8.843415E-01  0.000000E+00
  8.487680E-02  4.921324E-02  5.000000E-01  8.573394E-02  4.970600E-02  0.000000E+00  2.456216E-02  9.888450E-03  5.093767E-18 -7.902163E-01  0.000000E+00
  8.487680E-02  4.921324E-02  5.000000E-01  8.573394E-02  4.970600E-02  0.000000E+00  2.456216E-02  9.888450E-03  5.093767E-18 -7.902163E-01  0.000000E+00
  7.552090E-02  4.525991E-02  5.000000E-01  7.628356E-02  4.571275E-02  0.000000E+00  2.387184E-02  1.054189E-02  1.262946E-17 -6.838865E-01  0.000000E+00
  6.687020E-02  4.127083E-02  5.000000E-01  6.754550E-02  4.168338E-02  0.000000E+00  2.301026E-02  1.101355E-02  1.292767E-17 -5.681896E-01  0.000000E+00
  5.889940E-02  3.731117E-02  5.000000E-01  5.949421E-02  3.768374E-02  0.000000E+00  2.201132E-02  1.126107E-02  9.709953E-18 -4.507099E-01  0.000000E+00
  5.157140E-02  3.344821E-02  5.000000E-01  5.209220E-02  3.378177E-02  0.000000E+00  2.097091E-02  1.130692E-02  8.461962E-18 -3.402103E-01  0.000000E+00
  4.484650E-02  2.973734E-02  5.000000E-01  4.529939E-02  3.003342E-02  0.000000E+00  2.003520E-02  1.127081E-02  9.433132E-18 -2.412328E-01  0.000000E+00
  3.869820E-02  2.620981E-02  5.000000E-01  3.908900E-02  2.647026E-02  0.000000E+00  1.934383E-02  1.131931E-02  4.502712E-18 -1.528506E-01  0.000000E+00
  3.311550E-02  2.287684E-02  5.000000E-01  3.344992E-02  2.310364E-02  0.000000E+00  1.896055E-02  1.157085E-02 -1.552758E-17 -6.973690E-02  0.000000E+00
  2.809130E-02  1.974496E-02  5.000000E-01  2.837499E-02  1.994013E-02  0.000000E+00  1.873290E-02  1.198502E-02 -5.147180E-17  2.398703E-02  0.000000E+00
  2.362330E-02  1.681691E-02  5.000000E-01  2.386186E-02  1.698251E-02  0.000000E+00  1.824492E-02  1.219592E-02 -1.111213E-16  1.387839E-01  0.000000E+00
  1.966610E-02  1.411798E-02  5.000000E-01  1.986470E-02  1.425633E-02  0.000000E+00  1.725939E-02  1.170651E-02 -1.744487E-16  2.477478E-01  0.000000E+00
  1.609460E-02  1.170684E-02  5.000000E-01  1.625714E-02  1.182083E-02  0.000000E+00  1.610050E-02  1.061971E-02 -7.879412E-17  3.225139E-01  0.000000E+00
  1.282740E-02  9.604581E-03  5.000000E-01  1.295694E-02  9.697347E-03  0.000000E+00  1.537907E-02  9.659423E-03  6.515480E-16  3.654525E-01  0.000000E+00
  9.860990E-03  7.788682E-03  5.000000E-01  9.960574E-03  7.863110E-03  0.000000E+00  1.555243E-02  9.476952E-03  2.733056E-15  3.948017E-01  0.000000E+00
  7.251350E-03  6.207050E-03  5.000000E-01  7.324580E-03  6.265506E-03  0.000000E+00  1.675851E-02  1.033633E-02  6.040487E-15  4.253795E-01  0.000000E+00
  5.038810E-03  4.821508E-03  5.000000E-01  5.089696E-03  4.865971E-03  0.000000E+00  1.896705E-02  1.234968E-02  6.601917E-15  4.595672E-01  0.000000E+00
  3.239710E-03  3.611824E-03  5.000000E-01  3.272428E-03  3.644072E-03  0.000000E+00  2.197477E-02  1.581036E-02 -7.766755E-15  5.036645E-01  0.000000E+00
  1.861880E-03  2.566114E-03  5.000000E-01  1.880684E-03  2.587801E-03  0.000000E+00  2.471760E-02  2.089630E-02 -5.867267E-14  5.753470E-01  0.000000E+00
  9.013910E-04  1.681389E-03  5.000000E-01  9.104950E-04  1.694141E-03  0.000000E+00  2.419598E-02  2.611415E-02 -1.666995E-13  7.015837E-01  0.000000E+00
  3.295630E-04  9.654317E-04  5.000000E-01  3.328923E-04  9.709540E-04  0.000000E+00  1.690212E-02  2.552363E-02 -3.261453E-13  8.776765E-01  0.000000E+00
  7.194000E-05  4.357763E-04  5.000000E-01  7.266762E-05  4.359498E-04  0.000000E+00  5.932598E-03  1.193191E-02 -4.832318E-13  9.922020E-01  0.000000E+00
  4.516100E-06  1.124829E-04  5.000000E-01  4.562831E-06  1.093916E-04  0.000000E+00 -3.194820E-04 -5.699778E-03 -5.634402E-13  9.389890E-01  0.000000E+00
 -1.112850E-09  4.184989E-06  5.000000E-01  0.000000E+00  0.000000E+00  0.000000E+00 -1.207550E-03 -6.182742E-03 -5.730914E-13  8.587282E-01  0.000000E+00