 Title = "ADflow Slice Data"
Variables =  "CoordinateX"  "CoordinateY"  "CoordinateZ"  "XoC"  "YoC"  "ZoC" "VelocityX" "VelocityY" "VelocityZ" "CoefPressure" "Mach" 
Zone T= "Slice_0001 None Absolute Regular z = 0.50000000"
 Nodes =          192  Elements=          184  ZONETYPE=FELINESEG
 DATAPACKING=POINT
  5.566560E-01  3.708770E-02  5.000000E-01  5.622775E-01  3.746159E-02  0.000000E+00  7.525373E-03 -2.758275E-04  5.523155E-19  3.635984E-01  0.000000E+00
  5.776220E-01  3.625040E-02  5.000000E-01  5.834553E-01  3.661583E-02  0.000000E+00  7.623644E-03 -3.281080E-04  1.015840E-18  3.558765E-01  0.000000E+00
  5.983370E-01  3.529540E-02  5.000000E-01  6.043794E-01  3.565119E-02  0.000000E+00  7.722348E-03 -3.779347E-04  2.114129E-19  3.478397E-01  0.000000E+00
  6.187480E-01  3.423920E-02  5.000000E-01  6.249966E-01  3.458432E-02  0.000000E+00  7.819039E-03 -4.246166E-04 -2.809080E-19  3.395431E-01  0.000000E+00
  6.388030E-01  3.309940E-02  5.000000E-01  6.452541E-01  3.343301E-02  0.000000E+00  7.911275E-03 -4.677152E-04  7.580049E-19  3.311394E-01  0.000000E+00
  6.584530E-01  3.189330E-02  5.000000E-01  6.651025E-01  3.221473E-02  0.000000E+00  7.997427E-03 -5.070379E-04  6.049257E-19  3.227737E-01  0.000000E+00
  6.776550E-01  3.063740E-02  5.000000E-01  6.844985E-01  3.094615E-02  0.000000E+00  8.076987E-03 -5.428624E-04  5.863770E-19  3.145250E-01  0.000000E+00
  6.963720E-01  2.934600E-02  5.000000E-01  7.034045E-01  2.964170E-02  0.000000E+00  8.151686E-03 -5.767275E-04  8.426511E-19  3.066053E-01  0.000000E+00
  7.145680E-01  2.802720E-02  5.000000E-01  7.217842E-01  2.830959E-02  0.000000E+00  8.225504E-03 -6.103801E-04  3.769334E-19  2.990831E-01  0.000000E+00
  7.322140E-01  2.668750E-02  5.000000E-01  7.396084E-01  2.695636E-02  0.000000E+00  8.302118E-03 -6.444205E-04  2.114880E-19  2.916983E-01  0.000000E+00
  7.492860E-01  2.533350E-02  5.000000E-01  7.568528E-01  2.558868E-02  0.000000E+00  8.383440E-03 -6.788841E-04 -5.833218E-20  2.842558E-01  0.000000E+00
  7.657630E-01  2.397200E-02  5.000000E-01  7.734962E-01  2.421343E-02  0.000000E+00  8.470304E-03 -7.137301E-04 -4.844133E-19  2.767350E-01  0.000000E+00
  7.816300E-01  2.260940E-02  5.000000E-01  7.895235E-01  2.283707E-02  0.000000E+00  8.562675E-03 -7.484392E-04 -5.052611E-19  2.690977E-01  0.000000E+00
  7.968740E-01  2.125380E-02  5.000000E-01  8.049214E-01  2.146778E-02  0.000000E+00  8.658932E-03 -7.818933E-04 -8.965188E-21  2.612471E-01  0.000000E+00
  8.114890E-01  1.991420E-02  5.000000E-01  8.196840E-01  2.011465E-02  0.000000E+00  8.756602E-03 -8.133510E-04  1.485559E-19  2.532571E-01  0.000000E+00
  8.254710E-01  1.859860E-02  5.000000E-01  8.338072E-01  1.878577E-02  0.000000E+00  8.853992E-03 -8.427534E-04  3.808681E-19  2.453029E-01  0.000000E+00
  8.388180E-01  1.731380E-02  5.000000E-01  8.472890E-01  1.748799E-02  0.000000E+00  8.950255E-03 -8.701353E-04  1.058350E-18  2.374467E-01  0.000000E+00
  8.515320E-01  1.606570E-02  5.000000E-01  8.601314E-01  1.622729E-02  0.000000E+00  9.044770E-03 -8.955179E-04  1.027527E-18  2.297049E-01  0.000000E+00
  8.636180E-01  1.485900E-02  5.000000E-01  8.723395E-01  1.500840E-02  0.000000E+00  9.137228E-03 -9.190557E-04  7.405545E-19  2.221145E-01  0.000000E+00
  8.750810E-01  1.369760E-02  5.000000E-01  8.839182E-01  1.383528E-02  0.000000E+00  9.227925E-03 -9.411172E-04  8.824947E-19  2.147074E-01  0.000000E+00
  8.859290E-01  1.258410E-02  5.000000E-01  8.948758E-01  1.271053E-02  0.000000E+00  9.317985E-03 -9.623529E-04  2.979141E-19  2.075211E-01  0.000000E+00
  8.961710E-01  1.151990E-02  5.000000E-01  9.052212E-01  1.163558E-02  0.000000E+00  9.408966E-03 -9.832929E-04 -2.622958E-19  2.005287E-01  0.000000E+00
  9.058170E-01  1.050610E-02  5.000000E-01  9.149646E-01  1.061155E-02  0.000000E+00  9.502129E-03 -1.004165E-03  4.822159E-19  1.936735E-01  0.000000E+00
  9.148770E-01  9.543460E-03  5.000000E-01  9.241161E-01  9.639184E-03  0.000000E+00  9.598022E-03 -1.024903E-03  3.344544E-19  1.868961E-01  0.000000E+00
  9.148770E-01  9.543460E-03  5.000000E-01  9.241161E-01  9.639184E-03  0.000000E+00  9.598022E-03 -1.024903E-03  3.344544E-19  1.868961E-01  0.000000E+00
  9.233640E-01  8.632730E-03  5.000000E-01  9.326888E-01  8.719256E-03  0.000000E+00  9.696888E-03 -1.045525E-03 -1.986518E-19  1.801975E-01  0.000000E+00
  9.312880E-01  7.774350E-03  5.000000E-01  9.406928E-01  7.852208E-03  0.000000E+00  9.799169E-03 -1.066146E-03 -2.650274E-19  1.735898E-01  0.000000E+00
  9.386620E-01  6.968610E-03  5.000000E-01  9.481413E-01  7.038331E-03  0.000000E+00  9.905305E-03 -1.086804E-03 -3.585001E-19  1.670583E-01  0.000000E+00
  9.454960E-01  6.215720E-03  5.000000E-01  9.550443E-01  6.277838E-03  0.000000E+00  1.001534E-02 -1.107408E-03 -3.114476E-20  1.605766E-01  0.000000E+00
  9.518040E-01  5.515720E-03  5.000000E-01  9.614160E-01  5.570768E-03  0.000000E+00  1.012944E-02 -1.128006E-03  4.121950E-19  1.541599E-01  0.000000E+00
  9.575950E-01  4.868610E-03  5.000000E-01  9.672655E-01  4.917124E-03  0.000000E+00  1.024878E-02 -1.148776E-03  7.010592E-19  1.478217E-01  0.000000E+00
  9.628810E-01  4.274290E-03  5.000000E-01  9.726049E-01  4.316802E-03  0.000000E+00  1.037628E-02 -1.170019E-03  1.997446E-19  1.415535E-01  0.000000E+00
  9.676710E-01  3.732620E-03  5.000000E-01  9.774433E-01  3.769661E-03  0.000000E+00  1.051757E-02 -1.192392E-03 -3.507445E-19  1.353829E-01  0.000000E+00
  9.719750E-01  3.243430E-03  5.000000E-01  9.817907E-01  3.275531E-03  0.000000E+00  1.067985E-02 -1.216630E-03 -9.814697E-19  1.293378E-01  0.000000E+00
  9.758020E-01  2.806490E-03  5.000000E-01  9.856564E-01  2.834179E-03  0.000000E+00  1.086384E-02 -1.242835E-03 -3.196329E-18  1.234668E-01  0.000000E+00
  9.791590E-01  2.421610E-03  5.000000E-01  9.890473E-01  2.445412E-03  0.000000E+00  1.104341E-02 -1.268188E-03 -3.822290E-18  1.176915E-01  0.000000E+00
  9.820540E-01  2.088560E-03  5.000000E-01  9.919715E-01  2.108999E-03  0.000000E+00  1.114664E-02 -1.285266E-03  4.929025E-18  1.123955E-01  0.000000E+00
  9.844930E-01  1.807150E-03  5.000000E-01  9.944351E-01  1.824747E-03  0.000000E+00  1.104562E-02 -1.276203E-03  2.861246E-17  1.084838E-01  0.000000E+00
  9.864820E-01  1.577170E-03  5.000000E-01  9.964442E-01  1.592444E-03  0.000000E+00  1.044079E-02 -1.197890E-03  4.899051E-17  1.025787E-01  0.000000E+00
  9.880240E-01  1.398490E-03  5.000000E-01  9.980018E-01  1.411960E-03  0.000000E+00  8.885546E-03 -1.038938E-03 -4.142104E-17  8.920460E-02  0.000000E+00
  9.891220E-01  1.270950E-03  5.000000E-01  9.991109E-01  1.283132E-03  0.000000E+00  8.131332E-03 -1.052000E-03 -5.052840E-16  1.059725E-01  0.000000E+00
  9.897810E-01  1.194460E-03  5.000000E-01  9.997765E-01  1.205869E-03  0.000000E+00  1.502826E-02 -6.093926E-04 -1.515762E-15  1.948867E-01  0.000000E+00
  9.900000E-01  1.168980E-03  5.000000E-01  9.999978E-01  1.180132E-03  0.000000E+00  1.251872E-02 -1.891255E-03 -1.963003E-15 -3.418299E-02  0.000000E+00
  9.900000E-01  1.355200E-03  5.000000E-01  9.999978E-01  1.368232E-03  0.000000E+00  1.147999E-03 -1.374729E-02 -1.227585E-15 -1.674799E-01  0.000000E+00
  9.900000E-01  1.541410E-03  5.000000E-01  9.999978E-01  1.556323E-03  0.000000E+00 -7.031877E-04 -1.489530E-02 -3.013564E-16  4.264818E-03  0.000000E+00
  9.900000E-01  1.727630E-03  5.000000E-01  9.999978E-01  1.744424E-03  0.000000E+00 -3.959179E-04  1.137780E-03  4.467858E-16 -6.102740E-03  0.000000E+00
  9.900000E-01  1.913850E-03  5.000000E-01  9.999978E-01  1.932524E-03  0.000000E+00  6.899092E-04  1.848337E-03  1.468068E-15 -1.105918E-01  0.000000E+00
  9.900000E-01  2.100070E-03  5.000000E-01  9.999978E-01  2.120625E-03  0.000000E+00  6.781531E-03 -4.311478E-03  2.165499E-15 -2.427737E-02  0.000000E+00
  9.900000E-01  2.100070E-03  5.000000E-01  9.999978E-01  2.120625E-03  0.000000E+00  6.781531E-03 -4.311478E-03  2.165499E-15 -2.427737E-02  0.000000E+00
  9.897920E-01  2.143790E-03  5.000000E-01  9.997877E-01  2.164786E-03  0.000000E+00  7.238546E-03 -2.240143E-03  1.533680E-15  9.756060E-02  0.000000E+00
  9.891660E-01  2.275030E-03  5.000000E-01  9.991553E-01  2.297352E-03  0.000000E+00  2.267158E-03 -3.983948E-04  5.021316E-16  3.534625E-02  0.000000E+00
  9.881230E-01  2.494030E-03  5.000000E-01  9.981018E-01  2.518563E-03  0.000000E+00  2.097257E-03 -4.362909E-04  4.599018E-17  2.403515E-02  0.000000E+00
  9.866580E-01  2.801220E-03  5.000000E-01  9.966220E-01  2.828855E-03  0.000000E+00  2.568461E-03 -5.458984E-04 -4.831753E-17  3.063089E-02  0.000000E+00
  9.847700E-01  3.197150E-03  5.000000E-01  9.947149E-01  3.228784E-03  0.000000E+00  2.638300E-03 -5.533193E-04 -3.230593E-17  3.060743E-02  0.000000E+00
  9.824550E-01  3.682550E-03  5.000000E-01  9.923766E-01  3.719086E-03  0.000000E+00  2.593174E-03 -5.428310E-04 -1.061652E-17  2.728716E-02  0.000000E+00
  9.797070E-01  4.258270E-03  5.000000E-01  9.896008E-01  4.300620E-03  0.000000E+00  2.573752E-03 -5.391182E-04 -1.491870E-18  2.338939E-02  0.000000E+00
  9.765220E-01  4.925300E-03  5.000000E-01  9.863836E-01  4.974386E-03  0.000000E+00  2.594109E-03 -5.431167E-04  2.312580E-19  1.873464E-02  0.000000E+00
  9.728930E-01  5.684750E-03  5.000000E-01  9.827180E-01  5.741505E-03  0.000000E+00  2.651525E-03 -5.546199E-04 -1.949475E-19  1.316163E-02  0.000000E+00
  9.688130E-01  6.537800E-03  5.000000E-01  9.785968E-01  6.603170E-03  0.000000E+00  2.740575E-03 -5.726265E-04 -5.627172E-19  6.727666E-03  0.000000E+00
  9.642740E-01  7.485730E-03  5.000000E-01  9.740120E-01  7.560673E-03  0.000000E+00  2.853965E-03 -5.955652E-04 -5.468236E-19 -4.955037E-04  0.000000E+00
  9.592670E-01  8.529860E-03  5.000000E-01  9.689544E-01  8.615348E-03  0.000000E+00  2.985609E-03 -6.221455E-04 -4.044489E-19 -8.519635E-03  0.000000E+00
  9.537850E-01  9.671530E-03  5.000000E-01  9.634170E-01  9.768547E-03  0.000000E+00  3.131611E-03 -6.514528E-04 -4.980946E-20 -1.729453E-02  0.000000E+00
  9.478160E-01  1.091200E-02  5.000000E-01  9.573877E-01  1.102154E-02  0.000000E+00  3.289489E-03 -6.828860E-04  7.053287E-19 -2.682103E-02  0.000000E+00
  9.413520E-01  1.225260E-02  5.000000E-01  9.508585E-01  1.237568E-02  0.000000E+00  3.458121E-03 -7.161386E-04  1.507892E-18 -3.710527E-02  0.000000E+00
  9.343800E-01  1.369450E-02  5.000000E-01  9.438161E-01  1.383214E-02  0.000000E+00  3.636943E-03 -7.510054E-04  2.568001E-19 -4.813067E-02  0.000000E+00
  9.268920E-01  1.523850E-02  5.000000E-01  9.362524E-01  1.539174E-02  0.000000E+00  3.825603E-03 -7.873169E-04 -1.563980E-18 -5.991153E-02  0.000000E+00
  9.188750E-01  1.688550E-02  5.000000E-01  9.281545E-01  1.705537E-02  0.000000E+00  4.023853E-03 -8.248801E-04 -1.213364E-18 -7.243213E-02  0.000000E+00
  9.103190E-01  1.863590E-02  5.000000E-01  9.195121E-01  1.882345E-02  0.000000E+00  4.231430E-03 -8.635066E-04 -4.681282E-19 -8.571028E-02  0.000000E+00
  9.012130E-01  2.048980E-02  5.000000E-01  9.103141E-01  2.069607E-02  0.000000E+00  4.448049E-03 -9.029325E-04  3.259258E-19 -9.971889E-02  0.000000E+00
  8.915460E-01  2.244670E-02  5.000000E-01  9.005495E-01  2.267273E-02  0.000000E+00  4.673228E-03 -9.428745E-04  9.408019E-19 -1.144624E-01  0.000000E+00
  8.813080E-01  2.450580E-02  5.000000E-01  8.902081E-01  2.475262E-02  0.000000E+00  4.906406E-03 -9.830223E-04  3.992153E-19 -1.299186E-01  0.000000E+00
  8.704900E-01  2.666540E-02  5.000000E-01  8.792809E-01  2.693403E-02  0.000000E+00  5.146502E-03 -1.022961E-03 -3.558464E-19 -1.460200E-01  0.000000E+00
  8.704900E-01  2.666540E-02  5.000000E-01  8.792809E-01  2.693403E-02  0.000000E+00  5.146502E-03 -1.022961E-03 -3.558464E-19 -1.460200E-01  0.000000E+00
  8.590830E-01  2.892340E-02  5.000000E-01  8.677587E-01  2.921484E-02  0.000000E+00  5.392161E-03 -1.062416E-03 -7.937379E-19 -1.627770E-01  0.000000E+00
  8.470810E-01  3.127760E-02  5.000000E-01  8.556354E-01  3.159281E-02  0.000000E+00  5.642578E-03 -1.101233E-03  5.597593E-19 -1.802120E-01  0.000000E+00
  8.344780E-01  3.372540E-02  5.000000E-01  8.429052E-01  3.406533E-02  0.000000E+00  5.897339E-03 -1.139193E-03  1.389940E-18 -1.983084E-01  0.000000E+00
  8.212700E-01  3.626350E-02  5.000000E-01  8.295638E-01  3.662906E-02  0.000000E+00  6.156122E-03 -1.176085E-03 -4.012992E-19 -2.170705E-01  0.000000E+00
  8.074550E-01  3.888790E-02  5.000000E-01  8.156093E-01  3.927997E-02  0.000000E+00  6.418932E-03 -1.211822E-03 -4.361807E-19 -2.365382E-01  0.000000E+00
  7.930350E-01  4.159390E-02  5.000000E-01  8.010437E-01  4.201329E-02  0.000000E+00  6.686230E-03 -1.246323E-03  2.833396E-19 -2.567474E-01  0.000000E+00
  7.780130E-01  4.437590E-02  5.000000E-01  7.858700E-01  4.482339E-02  0.000000E+00  6.958789E-03 -1.279468E-03 -2.433434E-19 -2.777428E-01  0.000000E+00
  7.623950E-01  4.722740E-02  5.000000E-01  7.700942E-01  4.770368E-02  0.000000E+00  7.237649E-03 -1.311142E-03 -8.741787E-19 -2.995902E-01  0.000000E+00
  7.461930E-01  5.014030E-02  5.000000E-01  7.537286E-01  5.064600E-02  0.000000E+00  7.523828E-03 -1.341037E-03 -1.181011E-18 -3.222801E-01  0.000000E+00
  7.294180E-01  5.310520E-02  5.000000E-01  7.367842E-01  5.364084E-02  0.000000E+00  7.817926E-03 -1.368891E-03 -4.069980E-19 -3.458508E-01  0.000000E+00
  7.120900E-01  5.611170E-02  5.000000E-01  7.192812E-01  5.667770E-02  0.000000E+00  8.120454E-03 -1.394420E-03  1.143048E-18 -3.703305E-01  0.000000E+00
  6.942280E-01  5.914810E-02  5.000000E-01  7.012388E-01  5.974477E-02  0.000000E+00  8.431892E-03 -1.417305E-03  3.072275E-19 -3.957564E-01  0.000000E+00
  6.758590E-01  6.220190E-02  5.000000E-01  6.826843E-01  6.282941E-02  0.000000E+00  8.752978E-03 -1.437287E-03 -9.623340E-19 -4.222165E-01  0.000000E+00
  6.570120E-01  6.525950E-02  5.000000E-01  6.636470E-01  6.591789E-02  0.000000E+00  9.084773E-03 -1.453940E-03 -2.148070E-19 -4.497210E-01  0.000000E+00
  6.377220E-01  6.830590E-02  5.000000E-01  6.441622E-01  6.899505E-02  0.000000E+00  9.428129E-03 -1.466799E-03  1.361147E-19 -4.782771E-01  0.000000E+00
  6.180260E-01  7.132550E-02  5.000000E-01  6.242673E-01  7.204514E-02  0.000000E+00  9.783939E-03 -1.475504E-03 -6.551942E-19 -5.079650E-01  0.000000E+00
  5.979670E-01  7.430210E-02  5.000000E-01  6.040057E-01  7.505180E-02  0.000000E+00  1.015401E-02 -1.479783E-03 -1.555884E-18 -5.389904E-01  0.000000E+00
  5.775910E-01  7.721910E-02  5.000000E-01  5.834239E-01  7.799826E-02  0.000000E+00  1.054166E-02 -1.479119E-03 -1.758325E-18 -5.715752E-01  0.000000E+00
  5.569470E-01  8.005890E-02  5.000000E-01  5.625715E-01  8.086674E-02  0.000000E+00  1.095053E-02 -1.472108E-03 -8.756514E-19 -6.056718E-01  0.000000E+00
  5.360860E-01  8.280040E-02  5.000000E-01  5.414998E-01  8.363593E-02  0.000000E+00  1.138220E-02 -1.457020E-03 -3.688316E-19 -6.411344E-01  0.000000E+00
  5.150640E-01  8.542230E-02  5.000000E-01  5.202655E-01  8.628430E-02  0.000000E+00  1.183600E-02 -1.432505E-03  4.706733E-19 -6.779361E-01  0.000000E+00
  4.939370E-01  8.790410E-02  5.000000E-01  4.989251E-01  8.879117E-02  0.000000E+00  1.231047E-02 -1.397230E-03  1.423159E-18 -7.160343E-01  0.000000E+00
  4.727610E-01  9.022650E-02  5.000000E-01  4.775353E-01  9.113702E-02  0.000000E+00  1.280384E-02 -1.349880E-03  8.100199E-19 -7.553617E-01  0.000000E+00
  5.770140E-06 -2.212990E-04  5.000000E-01  5.829535E-06 -2.241872E-04  0.000000E+00 -3.124764E-04  3.682146E-03  1.530519E-16  9.361414E-01  0.000000E+00
  9.104010E-05 -8.821520E-04  5.000000E-01  9.196061E-05 -8.917139E-04  0.000000E+00  2.616379E-03 -6.461689E-03  2.021530E-16  1.023043E+00  0.000000E+00
  4.796980E-04 -1.917650E-03  5.000000E-01  4.845435E-04 -1.937669E-03  0.000000E+00  1.229921E-02 -1.879830E-02  1.282138E-16  9.761554E-01  0.000000E+00
  1.456590E-03 -3.124110E-03  5.000000E-01  1.471301E-03 -3.156313E-03  0.000000E+00  2.490380E-02 -2.256497E-02 -2.730976E-17  7.234199E-01  0.000000E+00
  3.096410E-03 -4.271440E-03  5.000000E-01  3.127681E-03 -4.315229E-03  0.000000E+00  3.223380E-02 -1.838960E-02 -7.821381E-17  4.305942E-01  0.000000E+00
  5.335170E-03 -5.278020E-03  5.000000E-01  5.389050E-03 -5.331975E-03  0.000000E+00  3.304247E-02 -1.240008E-02 -7.610666E-17  2.294850E-01  0.000000E+00
  8.129670E-03 -6.104130E-03  5.000000E-01  8.211771E-03 -6.166427E-03  0.000000E+00  3.036493E-02 -7.317871E-03 -8.851720E-17  1.030551E-01  0.000000E+00
  1.145600E-02 -6.699760E-03  5.000000E-01  1.157169E-02 -6.768072E-03  0.000000E+00  2.581163E-02 -3.275284E-03 -7.478320E-17  8.546935E-03  0.000000E+00
  1.529970E-02 -6.943660E-03  5.000000E-01  1.545421E-02 -7.014436E-03  0.000000E+00  1.957226E-02 -2.802553E-04 -4.191543E-17 -6.762613E-02  0.000000E+00
  1.962420E-02 -6.695780E-03  5.000000E-01  1.982238E-02 -6.764052E-03  0.000000E+00  1.284645E-02  1.105873E-03 -1.131929E-17 -7.010813E-02  0.000000E+00
  2.439810E-02 -6.025560E-03  5.000000E-01  2.464449E-02 -6.087064E-03  0.000000E+00  8.407948E-03  1.201087E-03  3.261657E-18  4.232196E-02  0.000000E+00
  2.966100E-02 -5.255910E-03  5.000000E-01  2.996054E-02 -5.309641E-03  0.000000E+00  7.508039E-03  1.077445E-03  4.606905E-18  1.678217E-01  0.000000E+00
  3.543640E-02 -4.480020E-03  5.000000E-01  3.579426E-02 -4.525916E-03  0.000000E+00  8.516019E-03  1.127657E-03  3.888686E-18  2.098925E-01  0.000000E+00
  4.172970E-02 -3.662000E-03  5.000000E-01  4.215112E-02 -3.699635E-03  0.000000E+00  9.472395E-03  1.248542E-03  3.106338E-18  2.034548E-01  0.000000E+00
  4.854440E-02 -2.744940E-03  5.000000E-01  4.903464E-02 -2.773314E-03  0.000000E+00  9.728306E-03  1.370835E-03  2.830809E-18  1.950993E-01  0.000000E+00
  5.588220E-02 -1.660130E-03  5.000000E-01  5.644654E-02 -1.677549E-03  0.000000E+00  9.471778E-03  1.456900E-03  2.473746E-18  1.997171E-01  0.000000E+00
  6.375220E-02 -3.978960E-04  5.000000E-01  6.439602E-02 -4.025676E-04  0.000000E+00  9.066651E-03  1.485144E-03  1.351660E-18  2.175434E-01  0.000000E+00
  7.217040E-02  1.011150E-03  5.000000E-01  7.289923E-02  1.020708E-03  0.000000E+00  8.747255E-03  1.470529E-03  4.032113E-19  2.404734E-01  0.000000E+00
  8.115500E-02  2.526530E-03  5.000000E-01  8.197456E-02  2.551391E-03  0.000000E+00  8.556552E-03  1.439968E-03 -7.700190E-19  2.604444E-01  0.000000E+00
  9.072040E-02  4.130480E-03  5.000000E-01  9.163656E-02  4.171539E-03  0.000000E+00  8.430557E-03  1.408121E-03 -1.398072E-18  2.746390E-01  0.000000E+00
  1.008780E-01  5.820270E-03  5.000000E-01  1.018967E-01  5.878394E-03  0.000000E+00  8.310808E-03  1.374871E-03 -1.186639E-18  2.858141E-01  0.000000E+00
  1.116380E-01  7.591010E-03  5.000000E-01  1.127654E-01  7.667016E-03  0.000000E+00  8.181758E-03  1.338246E-03  3.078636E-19  2.964016E-01  0.000000E+00
  1.230100E-01  9.439530E-03  5.000000E-01  1.242522E-01  9.534204E-03  0.000000E+00  8.043975E-03  1.298591E-03  1.060281E-18  3.066024E-01  0.000000E+00
  1.350030E-01  1.136190E-02  5.000000E-01  1.363664E-01  1.147599E-02  0.000000E+00  7.895112E-03  1.255777E-03  6.824978E-19  3.163787E-01  0.000000E+00
  1.350030E-01  1.136190E-02  5.000000E-01  1.363664E-01  1.147599E-02  0.000000E+00  7.895112E-03  1.255777E-03  6.824978E-19  3.163787E-01  0.000000E+00
  1.476220E-01  1.335310E-02  5.000000E-01  1.491128E-01  1.348730E-02  0.000000E+00  7.730403E-03  1.209311E-03  1.501330E-18  3.259157E-01  0.000000E+00
  1.608730E-01  1.540760E-02  5.000000E-01  1.624976E-01  1.556254E-02  0.000000E+00  7.546187E-03  1.159063E-03  8.146146E-19  3.354605E-01  0.000000E+00
  1.747560E-01  1.751940E-02  5.000000E-01  1.765208E-01  1.769567E-02  0.000000E+00  7.342203E-03  1.105513E-03 -8.374956E-19  3.452373E-01  0.000000E+00
  1.892730E-01  1.968190E-02  5.000000E-01  1.911844E-01  1.988001E-02  0.000000E+00  7.122760E-03  1.049002E-03 -1.557902E-18  3.552740E-01  0.000000E+00
  2.044180E-01  2.188600E-02  5.000000E-01  2.064824E-01  2.210637E-02  0.000000E+00  6.901083E-03  9.875700E-04  1.827130E-19  3.659957E-01  0.000000E+00
  2.201880E-01  2.410390E-02  5.000000E-01  2.224116E-01  2.434667E-02  0.000000E+00  6.700726E-03  9.186779E-04  1.737192E-18  3.777285E-01  0.000000E+00
  2.365750E-01  2.629140E-02  5.000000E-01  2.389641E-01  2.655626E-02  0.000000E+00  6.545176E-03  8.427203E-04  8.778679E-19  3.896197E-01  0.000000E+00
  2.535710E-01  2.839720E-02  5.000000E-01  2.561317E-01  2.868332E-02  0.000000E+00  6.445820E-03  7.624575E-04 -6.018410E-19  4.001233E-01  0.000000E+00
  2.711570E-01  3.037680E-02  5.000000E-01  2.738953E-01  3.068291E-02  0.000000E+00  6.401366E-03  6.799842E-04 -1.860825E-18  4.082874E-01  0.000000E+00
  2.893100E-01  3.218980E-02  5.000000E-01  2.922317E-01  3.251422E-02  0.000000E+00  6.405968E-03  5.958353E-04 -1.333040E-18  4.142366E-01  0.000000E+00
  3.080020E-01  3.380070E-02  5.000000E-01  3.111124E-01  3.414139E-02  0.000000E+00  6.450690E-03  5.119582E-04 -4.473432E-19  4.177720E-01  0.000000E+00
  3.271950E-01  3.519360E-02  5.000000E-01  3.304993E-01  3.554836E-02  0.000000E+00  6.521647E-03  4.310431E-04  6.814250E-19  4.186106E-01  0.000000E+00
  3.468470E-01  3.636660E-02  5.000000E-01  3.503497E-01  3.673320E-02  0.000000E+00  6.605829E-03  3.537883E-04  9.354110E-19  4.174420E-01  0.000000E+00
  3.669110E-01  3.732010E-02  5.000000E-01  3.706163E-01  3.769633E-02  0.000000E+00  6.695775E-03  2.799895E-04  5.161646E-19  4.150104E-01  0.000000E+00
  3.873360E-01  3.805910E-02  5.000000E-01  3.912476E-01  3.844280E-02  0.000000E+00  6.787446E-03  2.095861E-04  3.218107E-19  4.115310E-01  0.000000E+00
  4.080670E-01  3.859080E-02  5.000000E-01  4.121880E-01  3.897987E-02  0.000000E+00  6.878959E-03  1.417991E-04 -2.375491E-19  4.072976E-01  0.000000E+00
  4.290470E-01  3.891920E-02  5.000000E-01  4.333798E-01  3.931158E-02  0.000000E+00  6.970362E-03  7.590111E-05 -5.773262E-20  4.025245E-01  0.000000E+00
  4.502140E-01  3.905010E-02  5.000000E-01  4.547606E-01  3.944380E-02  0.000000E+00  7.061865E-03  1.201665E-05  1.117251E-19  3.971590E-01  0.000000E+00
  4.715070E-01  3.899200E-02  5.000000E-01  4.762686E-01  3.938512E-02  0.000000E+00  7.153108E-03 -4.949603E-05  8.974185E-20  3.911964E-01  0.000000E+00
  4.928620E-01  3.875580E-02  5.000000E-01  4.978393E-01  3.914653E-02  0.000000E+00  7.244004E-03 -1.086312E-04  1.929197E-19  3.847524E-01  0.000000E+00
  5.142140E-01  3.835270E-02  5.000000E-01  5.194069E-01  3.873936E-02  0.000000E+00  7.335539E-03 -1.658990E-04  4.255221E-19  3.780022E-01  0.000000E+00
  5.355000E-01  3.779280E-02  5.000000E-01  5.409079E-01  3.817381E-02  0.000000E+00  7.429142E-03 -2.216619E-04  5.378955E-19  3.709761E-01  0.000000E+00
  5.566560E-01  3.708770E-02  5.000000E-01  5.622775E-01  3.746159E-02  0.000000E+00  7.525373E-03 -2.758275E-04  5.523155E-19  3.635984E-01  0.000000E+00
  4.727610E-01  9.022650E-02  5.000000E-01  4.775353E-01  9.113702E-02  0.000000E+00  1.280384E-02 -1.349880E-03  8.100199E-19 -7.553617E-01  0.000000E+00
  4.515970E-01  9.237130E-02  5.000000E-01  4.561576E-01  9.330348E-02  0.000000E+00  1.331425E-02 -1.289114E-03  6.130238E-19 -7.957898E-01  0.000000E+00
  4.305020E-01  9.432210E-02  5.000000E-01  4.348495E-01  9.527398E-02  0.000000E+00  1.384010E-02 -1.213832E-03  1.543537E-18 -8.373629E-01  0.000000E+00
  4.095340E-01  9.606460E-02  5.000000E-01  4.136698E-01  9.703408E-02  0.000000E+00  1.438251E-02 -1.123648E-03  1.835956E-18 -8.807014E-01  0.000000E+00
  3.887520E-01  9.758820E-02  5.000000E-01  3.926779E-01  9.857306E-02  0.000000E+00  1.494871E-02 -1.017021E-03  1.121415E-18 -9.265133E-01  0.000000E+00
  3.682080E-01  9.888110E-02  5.000000E-01  3.719264E-01  9.987902E-02  0.000000E+00  1.554926E-02 -8.895205E-04  7.918033E-19 -9.748678E-01  0.000000E+00
  3.479570E-01  9.992790E-02  5.000000E-01  3.514709E-01  1.009364E-01  0.000000E+00  1.619050E-02 -7.353009E-04  2.328071E-19 -1.025234E+00  0.000000E+00
  3.280470E-01  1.007120E-01  5.000000E-01  3.313599E-01  1.017284E-01  0.000000E+00  1.687040E-02 -5.502901E-04  2.667639E-19 -1.077051E+00  0.000000E+00
  3.085240E-01  1.012220E-01  5.000000E-01  3.116397E-01  1.022436E-01  0.000000E+00  1.758154E-02 -3.327907E-04  2.976394E-19 -1.129973E+00  0.000000E+00
  2.894320E-01  1.014520E-01  5.000000E-01  2.923549E-01  1.024759E-01  0.000000E+00  1.831672E-02 -8.068623E-05 -6.751826E-19 -1.184098E+00  0.000000E+00
  2.708110E-01  1.013980E-01  5.000000E-01  2.735459E-01  1.024213E-01  0.000000E+00  1.907934E-02  2.090975E-04 -1.701142E-18 -1.241810E+00  0.000000E+00
  2.526960E-01  1.010580E-01  5.000000E-01  2.552479E-01  1.020779E-01  0.000000E+00  1.990834E-02  5.429559E-04 -2.615878E-18 -1.308625E+00  0.000000E+00
  2.351200E-01  1.004330E-01  5.000000E-01  2.374944E-01  1.014466E-01  0.000000E+00  2.089073E-02  9.515268E-04 -4.159816E-18 -1.386757E+00  0.000000E+00
  2.181120E-01  9.949620E-02  5.000000E-01  2.203147E-01  1.005003E-01  0.000000E+00  2.210365E-02  1.495367E-03 -5.668537E-18 -1.469938E+00  0.000000E+00
  2.017010E-01  9.819190E-02  5.000000E-01  2.037379E-01  9.918286E-02  0.000000E+00  2.353251E-02  2.222560E-03 -4.497594E-18 -1.549815E+00  0.000000E+00
  1.859190E-01  9.647960E-02  5.000000E-01  1.877965E-01  9.745327E-02  0.000000E+00  2.507763E-02  3.147189E-03 -1.356026E-18 -1.620083E+00  0.000000E+00
  1.707920E-01  9.433950E-02  5.000000E-01  1.725168E-01  9.529156E-02  0.000000E+00  2.660900E-02  4.263331E-03  1.009958E-18 -1.674535E+00  0.000000E+00
  1.563470E-01  9.176940E-02  5.000000E-01  1.579259E-01  9.269550E-02  0.000000E+00  2.799509E-02  5.549191E-03 -6.524627E-19 -1.707054E+00  0.000000E+00
  1.426070E-01  8.878020E-02  5.000000E-01  1.440472E-01  8.967611E-02  0.000000E+00  2.911734E-02  6.960532E-03 -5.285315E-18 -1.713390E+00  0.000000E+00
  1.295900E-01  8.539840E-02  5.000000E-01  1.308987E-01  8.626016E-02  0.000000E+00  2.988911E-02  8.431189E-03 -7.513732E-18 -1.692821E+00  0.000000E+00
  1.173060E-01  8.166540E-02  5.000000E-01  1.184906E-01  8.248946E-02  0.000000E+00  3.027517E-02  9.895560E-03 -6.593098E-18 -1.646845E+00  0.000000E+00
  1.057600E-01  7.762880E-02  5.000000E-01  1.068280E-01  7.841210E-02  0.000000E+00  3.028668E-02  1.130401E-02 -4.027365E-18 -1.577813E+00  0.000000E+00
  9.495290E-02  7.333900E-02  5.000000E-01  9.591181E-02  7.407898E-02  0.000000E+00  2.996542E-02  1.261867E-02 -6.683835E-19 -1.489096E+00  0.000000E+00
  8.487680E-02  6.884890E-02  5.000000E-01  8.573395E-02  6.954353E-02  0.000000E+00  2.936878E-02  1.381660E-02  5.180233E-18 -1.382816E+00  0.000000E+00
  8.487680E-02  6.884890E-02  5.000000E-01  8.573395E-02  6.954353E-02  0.000000E+00  2.936878E-02  1.381660E-02  5.180233E-18 -1.382816E+00  0.000000E+00
  7.552090E-02  6.421060E-02  5.000000E-01  7.628357E-02  6.485839E-02  0.000000E+00  2.853173E-02  1.487588E-02  1.181605E-17 -1.258100E+00  0.000000E+00
  6.687020E-02  5.947310E-02  5.000000E-01  6.754551E-02  6.007305E-02  0.000000E+00  2.744742E-02  1.572830E-02  1.460160E-17 -1.116909E+00  0.000000E+00
  5.889940E-02  5.469540E-02  5.000000E-01  5.949421E-02  5.524710E-02  0.000000E+00  2.613243E-02  1.628593E-02  1.410781E-17 -9.689308E-01  0.000000E+00
  5.157140E-02  4.994460E-02  5.000000E-01  5.209221E-02  5.044832E-02  0.000000E+00  2.470226E-02  1.655782E-02  1.086029E-17 -8.270104E-01  0.000000E+00
  4.484650E-02  4.527990E-02  5.000000E-01  4.529939E-02  4.573652E-02  0.000000E+00  2.335287E-02  1.671714E-02  7.376005E-18 -6.984031E-01  0.000000E+00
  3.869820E-02  4.073450E-02  5.000000E-01  3.908900E-02  4.114521E-02  0.000000E+00  2.226478E-02  1.702520E-02 -4.691624E-18 -5.809285E-01  0.000000E+00
  3.311550E-02  3.631740E-02  5.000000E-01  3.344993E-02  3.668351E-02  0.000000E+00  2.148944E-02  1.765861E-02 -2.831151E-17 -4.639813E-01  0.000000E+00
  2.809130E-02  3.203380E-02  5.000000E-01  2.837499E-02  3.235665E-02  0.000000E+00  2.079083E-02  1.851411E-02 -4.256261E-17 -3.233353E-01  0.000000E+00
  2.362330E-02  2.788670E-02  5.000000E-01  2.386187E-02  2.816767E-02  0.000000E+00  1.970032E-02  1.898311E-02 -4.034584E-17 -1.471245E-01  0.000000E+00
  1.966610E-02  2.392360E-02  5.000000E-01  1.986470E-02  2.416454E-02  0.000000E+00  1.810013E-02  1.831635E-02 -2.956698E-17  2.230345E-02  0.000000E+00
  1.609460E-02  2.026340E-02  5.000000E-01  1.625714E-02  2.046738E-02  0.000000E+00  1.644079E-02  1.670417E-02 -1.837092E-17  1.422632E-01  0.000000E+00
  1.282740E-02  1.697300E-02  5.000000E-01  1.295694E-02  1.714375E-02  0.000000E+00  1.527008E-02  1.523377E-02 -1.225474E-17  2.152732E-01  0.000000E+00
  9.860990E-03  1.404440E-02  5.000000E-01  9.960575E-03  1.418558E-02  0.000000E+00  1.486072E-02  1.484281E-02 -8.903385E-18  2.682935E-01  0.000000E+00
  7.251350E-03  1.141050E-02  5.000000E-01  7.324581E-03  1.152508E-02  0.000000E+00  1.512238E-02  1.580031E-02 -9.032686E-18  3.244948E-01  0.000000E+00
  5.038810E-03  9.023900E-03  5.000000E-01  5.089697E-03  9.114377E-03  0.000000E+00  1.572358E-02  1.792464E-02 -2.481549E-17  3.895034E-01  0.000000E+00
  3.239710E-03  6.868810E-03  5.000000E-01  3.272428E-03  6.937523E-03  0.000000E+00  1.611220E-02  2.091785E-02 -5.180428E-17  4.711878E-01  0.000000E+00
  1.861880E-03  4.945430E-03  5.000000E-01  1.880684E-03  4.994719E-03  0.000000E+00  1.541934E-02  2.409423E-02 -6.574307E-17  5.794895E-01  0.000000E+00
  9.013910E-04  3.272090E-03  5.000000E-01  9.104950E-04  3.304481E-03  0.000000E+00  1.272731E-02  2.586416E-02 -6.115264E-17  7.152528E-01  0.000000E+00
  3.295630E-04  1.888540E-03  5.000000E-01  3.328923E-04  1.906959E-03  0.000000E+00  8.038400E-03  2.366369E-02 -5.693089E-17  8.589565E-01  0.000000E+00
  7.194000E-05  8.512010E-04  5.000000E-01  7.266763E-05  8.591437E-04  0.000000E+00  3.264635E-03  1.580828E-02 -5.151450E-17  9.579058E-01  0.000000E+00
  4.516100E-06  2.142970E-04  5.000000E-01  4.562831E-06  2.158078E-04  0.000000E+00  5.629452E-04  6.339641E-03 -1.860543E-17  9.497981E-01  0.000000E+00
 -1.112850E-09  6.467830E-07  5.000000E-01  0.000000E+00  0.000000E+00  0.000000E+00 -2.850076E-04  4.282897E-03  6.438720E-17  8.995454E-01  0.000000E+00