 Title = "ADflow Slice Data"
Variables =  "CoordinateX"  "CoordinateY"  "CoordinateZ"  "XoC"  "YoC"  "ZoC" "VelocityX" "VelocityY" "VelocityZ" "CoefPressure" "Mach" 
Zone T= "Slice_0001 None Absolute Regular z = 0.50000000"
 Nodes =          192  Elements=          184  ZONETYPE=FELINESEG
 DATAPACKING=POINT
  5.566560E-01  3.019301E-02  5.000000E-01  5.622776E-01  3.043269E-02  0.000000E+00  7.405283E-03  1.923131E-05 -3.726921E-19  3.021894E-01  0.000000E+00
  5.776220E-01  3.017079E-02  5.000000E-01  5.834553E-01  3.041024E-02  0.000000E+00  7.440257E-03 -3.367886E-05 -1.124024E-18  3.009722E-01  0.000000E+00
  5.983370E-01  3.000537E-02  5.000000E-01  6.043795E-01  3.024315E-02  0.000000E+00  7.479358E-03 -8.395270E-05 -3.001320E-19  2.988774E-01  0.000000E+00
  6.187480E-01  2.971056E-02  5.000000E-01  6.249967E-01  2.994536E-02  0.000000E+00  7.517474E-03 -1.311345E-04  1.262492E-19  2.963138E-01  0.000000E+00
  6.388030E-01  2.930092E-02  5.000000E-01  6.452542E-01  2.953158E-02  0.000000E+00  7.551749E-03 -1.752034E-04 -3.548249E-19  2.935616E-01  0.000000E+00
  6.584530E-01  2.879068E-02  5.000000E-01  6.651026E-01  2.901619E-02  0.000000E+00  7.581015E-03 -2.165575E-04 -2.323886E-19  2.907421E-01  0.000000E+00
  6.776550E-01  2.819242E-02  5.000000E-01  6.844986E-01  2.841189E-02  0.000000E+00  7.605965E-03 -2.567067E-04  1.016428E-19  2.880431E-01  0.000000E+00
  6.963720E-01  2.751253E-02  5.000000E-01  7.034046E-01  2.772513E-02  0.000000E+00  7.629248E-03 -2.976261E-04  1.043671E-19  2.856277E-01  0.000000E+00
  7.145680E-01  2.675396E-02  5.000000E-01  7.217843E-01  2.695890E-02  0.000000E+00  7.652844E-03 -3.399124E-04  4.132352E-19  2.832419E-01  0.000000E+00
  7.322140E-01  2.592198E-02  5.000000E-01  7.396085E-01  2.611852E-02  0.000000E+00  7.676368E-03 -3.827265E-04  4.105163E-19  2.805813E-01  0.000000E+00
  7.492860E-01  2.502473E-02  5.000000E-01  7.568529E-01  2.521221E-02  0.000000E+00  7.699909E-03 -4.248847E-04 -8.411202E-19  2.776867E-01  0.000000E+00
  7.657630E-01  2.407231E-02  5.000000E-01  7.734963E-01  2.425018E-02  0.000000E+00  7.726593E-03 -4.659458E-04 -7.403696E-19  2.744891E-01  0.000000E+00
  7.816300E-01  2.307548E-02  5.000000E-01  7.895236E-01  2.324328E-02  0.000000E+00  7.764926E-03 -5.098122E-04  2.126328E-19  2.710898E-01  0.000000E+00
  7.968740E-01  2.203275E-02  5.000000E-01  8.049215E-01  2.219001E-02  0.000000E+00  7.834780E-03 -5.661243E-04 -5.232409E-19  2.684167E-01  0.000000E+00
  8.114890E-01  2.092156E-02  5.000000E-01  8.196841E-01  2.106760E-02  0.000000E+00  7.955838E-03 -6.378084E-04 -6.654348E-19  2.654026E-01  0.000000E+00
  8.254710E-01  1.974271E-02  5.000000E-01  8.338073E-01  1.987685E-02  0.000000E+00  8.125625E-03 -7.168325E-04 -2.197449E-20  2.597613E-01  0.000000E+00
  8.388180E-01  1.851378E-02  5.000000E-01  8.472891E-01  1.863550E-02  0.000000E+00  8.324473E-03 -7.947677E-04 -1.652388E-19  2.515060E-01  0.000000E+00
  8.515320E-01  1.725791E-02  5.000000E-01  8.601315E-01  1.736695E-02  0.000000E+00  8.534101E-03 -8.668258E-04 -3.749102E-19  2.417769E-01  0.000000E+00
  8.636180E-01  1.599753E-02  5.000000E-01  8.723396E-01  1.609385E-02  0.000000E+00  8.743682E-03 -9.311345E-04 -4.832871E-19  2.313908E-01  0.000000E+00
  8.750810E-01  1.475211E-02  5.000000E-01  8.839183E-01  1.483585E-02  0.000000E+00  8.946961E-03 -9.873283E-04 -7.109539E-19  2.207161E-01  0.000000E+00
  8.859290E-01  1.353690E-02  5.000000E-01  8.948759E-01  1.360837E-02  0.000000E+00  9.140202E-03 -1.035814E-03 -1.919136E-19  2.100242E-01  0.000000E+00
  8.961710E-01  1.236317E-02  5.000000E-01  9.052213E-01  1.242278E-02  0.000000E+00  9.321863E-03 -1.077369E-03  5.805288E-19  1.995213E-01  0.000000E+00
  9.058170E-01  1.123913E-02  5.000000E-01  9.149647E-01  1.128739E-02  0.000000E+00  9.491967E-03 -1.112882E-03 -2.915343E-19  1.893232E-01  0.000000E+00
  9.148770E-01  1.017052E-02  5.000000E-01  9.241162E-01  1.020799E-02  0.000000E+00  9.651162E-03 -1.143134E-03 -6.939663E-19  1.794748E-01  0.000000E+00
  9.148770E-01  1.017052E-02  5.000000E-01  9.241162E-01  1.020799E-02  0.000000E+00  9.651162E-03 -1.143134E-03 -6.939663E-19  1.794748E-01  0.000000E+00
  9.233640E-01  9.161129E-03  5.000000E-01  9.326889E-01  9.188405E-03  0.000000E+00  9.800458E-03 -1.168962E-03  5.492798E-21  1.700255E-01  0.000000E+00
  9.312880E-01  8.213321E-03  5.000000E-01  9.406930E-01  8.231026E-03  0.000000E+00  9.941354E-03 -1.191213E-03 -3.263749E-19  1.610152E-01  0.000000E+00
  9.386620E-01  7.328208E-03  5.000000E-01  9.481414E-01  7.336973E-03  0.000000E+00  1.007542E-02 -1.210623E-03 -1.110459E-18  1.524326E-01  0.000000E+00
  9.454960E-01  6.506214E-03  5.000000E-01  9.550444E-01  6.506678E-03  0.000000E+00  1.020379E-02 -1.227717E-03 -1.256291E-18  1.442420E-01  0.000000E+00
  9.518040E-01  5.746997E-03  5.000000E-01  9.614161E-01  5.739794E-03  0.000000E+00  1.032768E-02 -1.243039E-03 -5.305737E-19  1.364498E-01  0.000000E+00
  9.575950E-01  5.049983E-03  5.000000E-01  9.672656E-01  5.035741E-03  0.000000E+00  1.044928E-02 -1.257221E-03  7.485274E-20  1.290420E-01  0.000000E+00
  9.628810E-01  4.414219E-03  5.000000E-01  9.726050E-01  4.393557E-03  0.000000E+00  1.057246E-02 -1.270963E-03  6.799896E-19  1.219862E-01  0.000000E+00
  9.676710E-01  3.838665E-03  5.000000E-01  9.774434E-01  3.812190E-03  0.000000E+00  1.070396E-02 -1.285302E-03  1.149693E-18  1.152717E-01  0.000000E+00
  9.719750E-01  3.322182E-03  5.000000E-01  9.817909E-01  3.290491E-03  0.000000E+00  1.085253E-02 -1.301376E-03 -7.134554E-19  1.088892E-01  0.000000E+00
  9.758020E-01  2.863601E-03  5.000000E-01  9.856565E-01  2.827279E-03  0.000000E+00  1.102184E-02 -1.319734E-03 -6.111093E-18  1.028459E-01  0.000000E+00
  9.791590E-01  2.461855E-03  5.000000E-01  9.890474E-01  2.421476E-03  0.000000E+00  1.119034E-02 -1.338102E-03 -1.102752E-17  9.700474E-02  0.000000E+00
  9.820540E-01  2.115893E-03  5.000000E-01  9.919716E-01  2.072020E-03  0.000000E+00  1.129213E-02 -1.349656E-03 -1.307641E-18  9.170188E-02  0.000000E+00
  9.844930E-01  1.824805E-03  5.000000E-01  9.944353E-01  1.777992E-03  0.000000E+00  1.120486E-02 -1.336772E-03  3.772694E-17  8.781581E-02  0.000000E+00
  9.864820E-01  1.587759E-03  5.000000E-01  9.964444E-01  1.538553E-03  0.000000E+00  1.062262E-02 -1.254398E-03  7.958521E-17  8.173453E-02  0.000000E+00
  9.880240E-01  1.404121E-03  5.000000E-01  9.980019E-01  1.353060E-03  0.000000E+00  9.066717E-03 -1.087744E-03 -1.502901E-17  6.753725E-02  0.000000E+00
  9.891220E-01  1.273331E-03  5.000000E-01  9.991110E-01  1.220949E-03  0.000000E+00  8.329588E-03 -1.105089E-03 -5.367399E-16  8.426954E-02  0.000000E+00
  9.897810E-01  1.195002E-03  5.000000E-01  9.997767E-01  1.141829E-03  0.000000E+00  1.561929E-02 -6.637376E-04 -1.644563E-15  1.777531E-01  0.000000E+00
  9.900000E-01  1.168929E-03  5.000000E-01  9.999979E-01  1.115493E-03  0.000000E+00  1.307758E-02 -1.661802E-03 -2.122648E-15 -6.205775E-02  0.000000E+00
  9.900000E-01  1.355150E-03  5.000000E-01  9.999979E-01  1.303594E-03  0.000000E+00  1.211006E-03 -1.359621E-02 -1.349237E-15 -2.045571E-01  0.000000E+00
  9.900000E-01  1.541361E-03  5.000000E-01  9.999979E-01  1.491686E-03  0.000000E+00 -7.379224E-04 -1.427927E-02 -3.846348E-16 -2.476193E-02  0.000000E+00
  9.900000E-01  1.727582E-03  5.000000E-01  9.999979E-01  1.679787E-03  0.000000E+00 -4.675636E-04  3.471846E-03  4.374603E-16 -3.403236E-02  0.000000E+00
  9.900000E-01  1.913803E-03  5.000000E-01  9.999979E-01  1.867889E-03  0.000000E+00  8.130769E-04  3.551648E-03  1.628555E-15 -1.579573E-01  0.000000E+00
  9.900000E-01  2.100023E-03  5.000000E-01  9.999979E-01  2.055990E-03  0.000000E+00  8.237768E-03 -4.609250E-03  2.480036E-15 -5.984189E-02  0.000000E+00
  9.900000E-01  2.100023E-03  5.000000E-01  9.999979E-01  2.055990E-03  0.000000E+00  8.237768E-03 -4.609250E-03  2.480036E-15 -5.984189E-02  0.000000E+00
  9.897920E-01  2.143414E-03  5.000000E-01  9.997878E-01  2.099818E-03  0.000000E+00  9.107598E-03 -2.733881E-03  1.768845E-15  8.413017E-02  0.000000E+00
  9.891660E-01  2.273498E-03  5.000000E-01  9.991555E-01  2.231216E-03  0.000000E+00  3.404030E-03 -6.180393E-04  5.620291E-16  1.247232E-02  0.000000E+00
  9.881230E-01  2.490027E-03  5.000000E-01  9.981019E-01  2.449932E-03  0.000000E+00  3.268969E-03 -6.735059E-04  3.710809E-17 -9.659159E-06  0.000000E+00
  9.866580E-01  2.792611E-03  5.000000E-01  9.966221E-01  2.755573E-03  0.000000E+00  3.871590E-03 -8.060711E-04 -5.902802E-17  6.424661E-03  0.000000E+00
  9.847700E-01  3.180664E-03  5.000000E-01  9.947151E-01  3.147544E-03  0.000000E+00  4.043265E-03 -8.280892E-04 -3.331196E-17  4.560213E-03  0.000000E+00
  9.824550E-01  3.653458E-03  5.000000E-01  9.923767E-01  3.625113E-03  0.000000E+00  4.104274E-03 -8.339157E-04 -8.249767E-18 -8.163857E-04  0.000000E+00
  9.797070E-01  4.210082E-03  5.000000E-01  9.896009E-01  4.187358E-03  0.000000E+00  4.194978E-03 -8.458982E-04 -1.130020E-18 -6.780723E-03  0.000000E+00
  9.765220E-01  4.849465E-03  5.000000E-01  9.863838E-01  4.833198E-03  0.000000E+00  4.326908E-03 -8.640330E-04 -9.500230E-19 -1.368380E-02  0.000000E+00
  9.728930E-01  5.570382E-03  5.000000E-01  9.827181E-01  5.561395E-03  0.000000E+00  4.498726E-03 -8.883174E-04 -5.790354E-19 -2.160599E-02  0.000000E+00
  9.688130E-01  6.371420E-03  5.000000E-01  9.785969E-01  6.370523E-03  0.000000E+00  4.704203E-03 -9.174107E-04 -8.907101E-19 -3.035741E-02  0.000000E+00
  9.642740E-01  7.251044E-03  5.000000E-01  9.740121E-01  7.259031E-03  0.000000E+00  4.933360E-03 -9.490711E-04 -1.040657E-18 -3.975507E-02  0.000000E+00
  9.592670E-01  8.207579E-03  5.000000E-01  9.689545E-01  8.225226E-03  0.000000E+00  5.177273E-03 -9.814560E-04 -1.236726E-18 -4.972334E-02  0.000000E+00
  9.537850E-01  9.239216E-03  5.000000E-01  9.634172E-01  9.267281E-03  0.000000E+00  5.429595E-03 -1.013152E-03 -2.005738E-18 -6.010552E-02  0.000000E+00
  9.478160E-01  1.034404E-02  5.000000E-01  9.573879E-01  1.038327E-02  0.000000E+00  5.685371E-03 -1.043175E-03 -1.373308E-18 -7.079543E-02  0.000000E+00
  9.413520E-01  1.152018E-02  5.000000E-01  9.508586E-01  1.157128E-02  0.000000E+00  5.940887E-03 -1.070912E-03 -2.465224E-19 -8.169251E-02  0.000000E+00
  9.343800E-01  1.276575E-02  5.000000E-01  9.438162E-01  1.282943E-02  0.000000E+00  6.192858E-03 -1.095909E-03 -5.952210E-19 -9.267273E-02  0.000000E+00
  9.268920E-01  1.407872E-02  5.000000E-01  9.362526E-01  1.415566E-02  0.000000E+00  6.438327E-03 -1.117889E-03 -4.508498E-19 -1.036749E-01  0.000000E+00
  9.188750E-01  1.545754E-02  5.000000E-01  9.281546E-01  1.554840E-02  0.000000E+00  6.674723E-03 -1.136704E-03  4.640520E-19 -1.145958E-01  0.000000E+00
  9.103190E-01  1.690070E-02  5.000000E-01  9.195122E-01  1.700613E-02  0.000000E+00  6.899562E-03 -1.152393E-03 -2.175507E-20 -1.253830E-01  0.000000E+00
  9.012130E-01  1.840711E-02  5.000000E-01  9.103142E-01  1.852776E-02  0.000000E+00  7.110777E-03 -1.165052E-03 -2.963089E-19 -1.359826E-01  0.000000E+00
  8.915460E-01  1.997608E-02  5.000000E-01  9.005496E-01  2.011258E-02  0.000000E+00  7.306786E-03 -1.175029E-03 -3.037347E-19 -1.463924E-01  0.000000E+00
  8.813080E-01  2.160765E-02  5.000000E-01  8.902082E-01  2.176062E-02  0.000000E+00  7.486818E-03 -1.182866E-03 -7.698798E-19 -1.566323E-01  0.000000E+00
  8.704900E-01  2.330236E-02  5.000000E-01  8.792810E-01  2.347244E-02  0.000000E+00  7.650931E-03 -1.189209E-03 -8.575205E-19 -1.667445E-01  0.000000E+00
  8.704900E-01  2.330236E-02  5.000000E-01  8.792810E-01  2.347244E-02  0.000000E+00  7.650931E-03 -1.189209E-03 -8.575205E-19 -1.667445E-01  0.000000E+00
  8.590830E-01  2.506173E-02  5.000000E-01  8.677588E-01  2.524958E-02  0.000000E+00  7.800365E-03 -1.195059E-03 -8.214058E-19 -1.768624E-01  0.000000E+00
  8.470810E-01  2.688835E-02  5.000000E-01  8.556356E-01  2.709465E-02  0.000000E+00  7.938239E-03 -1.201504E-03 -7.876292E-19 -1.871881E-01  0.000000E+00
  8.344780E-01  2.878558E-02  5.000000E-01  8.429053E-01  2.901104E-02  0.000000E+00  8.069720E-03 -1.209532E-03 -7.862796E-19 -1.979722E-01  0.000000E+00
  8.212700E-01  3.075678E-02  5.000000E-01  8.295639E-01  3.100215E-02  0.000000E+00  8.202525E-03 -1.219966E-03 -9.465525E-19 -2.096491E-01  0.000000E+00
  8.074550E-01  3.280423E-02  5.000000E-01  8.156094E-01  3.307028E-02  0.000000E+00  8.347548E-03 -1.233074E-03 -1.612391E-18 -2.227303E-01  0.000000E+00
  7.930350E-01  3.492701E-02  5.000000E-01  8.010438E-01  3.521449E-02  0.000000E+00  8.515590E-03 -1.247598E-03 -2.295811E-18 -2.372107E-01  0.000000E+00
  7.780130E-01  3.711766E-02  5.000000E-01  7.858701E-01  3.742727E-02  0.000000E+00  8.710062E-03 -1.260864E-03 -2.183784E-18 -2.524050E-01  0.000000E+00
  7.623950E-01  3.936233E-02  5.000000E-01  7.700943E-01  3.969460E-02  0.000000E+00  8.925384E-03 -1.271636E-03 -1.316491E-18 -2.680584E-01  0.000000E+00
  7.461930E-01  4.165075E-02  5.000000E-01  7.537287E-01  4.200614E-02  0.000000E+00  9.154285E-03 -1.280065E-03 -1.052661E-18 -2.842848E-01  0.000000E+00
  7.294180E-01  4.397331E-02  5.000000E-01  7.367843E-01  4.435215E-02  0.000000E+00  9.391293E-03 -1.285839E-03 -1.011941E-18 -3.009102E-01  0.000000E+00
  7.120900E-01  4.631991E-02  5.000000E-01  7.192813E-01  4.672245E-02  0.000000E+00  9.631626E-03 -1.288426E-03 -4.423035E-19 -3.177709E-01  0.000000E+00
  6.942280E-01  4.868059E-02  5.000000E-01  7.012389E-01  4.910697E-02  0.000000E+00  9.871892E-03 -1.287842E-03  2.100980E-19 -3.348640E-01  0.000000E+00
  6.758590E-01  5.104628E-02  5.000000E-01  6.826844E-01  5.149655E-02  0.000000E+00  1.011157E-02 -1.284817E-03  2.304351E-19 -3.524306E-01  0.000000E+00
  6.570120E-01  5.340913E-02  5.000000E-01  6.636471E-01  5.388326E-02  0.000000E+00  1.035382E-02 -1.279873E-03  5.465151E-19 -3.707673E-01  0.000000E+00
  6.377220E-01  5.576043E-02  5.000000E-01  6.441623E-01  5.625831E-02  0.000000E+00  1.060367E-02 -1.272532E-03  8.235920E-19 -3.899011E-01  0.000000E+00
  6.180260E-01  5.808791E-02  5.000000E-01  6.242674E-01  5.860929E-02  0.000000E+00  1.086496E-02 -1.261975E-03  2.802971E-19 -4.097944E-01  0.000000E+00
  5.979670E-01  6.037812E-02  5.000000E-01  6.040058E-01  6.092263E-02  0.000000E+00  1.114010E-02 -1.247780E-03 -1.507934E-19 -4.306163E-01  0.000000E+00
  5.775910E-01  6.261710E-02  5.000000E-01  5.834240E-01  6.318422E-02  0.000000E+00  1.143130E-02 -1.229299E-03  4.120183E-19 -4.524334E-01  0.000000E+00
  5.569470E-01  6.478989E-02  5.000000E-01  5.625715E-01  6.537895E-02  0.000000E+00  1.173911E-02 -1.205053E-03  7.406504E-19 -4.749573E-01  0.000000E+00
  5.360860E-01  6.687862E-02  5.000000E-01  5.414999E-01  6.748878E-02  0.000000E+00  1.206101E-02 -1.173952E-03  5.782525E-19 -4.979836E-01  0.000000E+00
  5.150640E-01  6.886754E-02  5.000000E-01  5.202656E-01  6.949778E-02  0.000000E+00  1.239362E-02 -1.135934E-03  1.037970E-18 -5.216149E-01  0.000000E+00
  4.939370E-01  7.074302E-02  5.000000E-01  4.989252E-01  7.139220E-02  0.000000E+00  1.273533E-02 -1.090771E-03  9.072723E-19 -5.459061E-01  0.000000E+00
  4.727610E-01  7.249226E-02  5.000000E-01  4.775354E-01  7.315911E-02  0.000000E+00  1.308603E-02 -1.037954E-03  4.013662E-19 -5.708971E-01  0.000000E+00
  5.770140E-06 -4.728515E-05  5.000000E-01  5.829536E-06 -1.130038E-04  0.000000E+00  4.318445E-03 -2.541953E-02 -5.315756E-13  9.004380E-01  0.000000E+00
  9.104010E-05 -3.766037E-04  5.000000E-01  9.196063E-05 -4.456481E-04  0.000000E+00  2.137428E-02 -3.765325E-02 -4.625628E-13  8.965251E-01  0.000000E+00
  4.796980E-04 -8.812068E-04  5.000000E-01  4.845435E-04 -9.553471E-04  0.000000E+00  4.011820E-02 -3.550207E-02 -3.095186E-13  5.692862E-01  0.000000E+00
  1.456590E-03 -1.454606E-03  5.000000E-01  1.471301E-03 -1.534537E-03  0.000000E+00  4.262780E-02 -2.022293E-02 -1.498644E-13  2.350317E-01  0.000000E+00
  3.096410E-03 -1.995462E-03  5.000000E-01  3.127681E-03 -2.080855E-03  0.000000E+00  3.437525E-02 -9.689722E-03 -4.625882E-14  1.289274E-01  0.000000E+00
  5.335170E-03 -2.482608E-03  5.000000E-01  5.389050E-03 -2.572921E-03  0.000000E+00  2.721161E-02 -5.112736E-03 -2.271998E-15  1.195006E-01  0.000000E+00
  8.129670E-03 -2.910494E-03  5.000000E-01  8.211772E-03 -3.005127E-03  0.000000E+00  2.293674E-02 -3.002132E-03  7.401099E-15  1.025698E-01  0.000000E+00
  1.145600E-02 -3.261510E-03  5.000000E-01  1.157169E-02 -3.359688E-03  0.000000E+00  1.974169E-02 -1.613022E-03  5.198634E-15  6.965364E-02  0.000000E+00
  1.529970E-02 -3.469494E-03  5.000000E-01  1.545421E-02 -3.569773E-03  0.000000E+00  1.633753E-02 -4.500264E-04  1.934479E-15  3.402878E-02  0.000000E+00
  1.962420E-02 -3.443377E-03  5.000000E-01  1.982238E-02 -3.543392E-03  0.000000E+00  1.280556E-02  3.022916E-04  2.908042E-16  2.883426E-02  0.000000E+00
  2.439810E-02 -3.206580E-03  5.000000E-01  2.464449E-02 -3.304204E-03  0.000000E+00  1.044450E-02  5.113284E-04 -1.391886E-16  8.442409E-02  0.000000E+00
  2.966100E-02 -2.949860E-03  5.000000E-01  2.996054E-02 -3.044891E-03  0.000000E+00  1.004798E-02  4.437127E-04 -1.222001E-16  1.517487E-01  0.000000E+00
  3.543640E-02 -2.736650E-03  5.000000E-01  3.579427E-02 -2.829528E-03  0.000000E+00  1.081483E-02  3.627600E-04 -4.396566E-17  1.714901E-01  0.000000E+00
  4.172970E-02 -2.548267E-03  5.000000E-01  4.215112E-02 -2.639243E-03  0.000000E+00  1.159296E-02  3.423650E-04 -3.257771E-18  1.590169E-01  0.000000E+00
  4.854440E-02 -2.346755E-03  5.000000E-01  4.903464E-02 -2.435696E-03  0.000000E+00  1.192433E-02  3.924296E-04  5.527358E-18  1.415986E-01  0.000000E+00
  5.588220E-02 -2.079109E-03  5.000000E-01  5.644655E-02 -2.165347E-03  0.000000E+00  1.187719E-02  4.787475E-04  3.791124E-18  1.308986E-01  0.000000E+00
  6.375220E-02 -1.729394E-03  5.000000E-01  6.439603E-02 -1.812100E-03  0.000000E+00  1.168800E-02  5.498073E-04  1.454693E-18  1.299581E-01  0.000000E+00
  7.217040E-02 -1.310520E-03  5.000000E-01  7.289924E-02 -1.388996E-03  0.000000E+00  1.154406E-02  5.874774E-04  3.391125E-19  1.342261E-01  0.000000E+00
  8.115500E-02 -8.438642E-04  5.000000E-01  8.197458E-02 -9.176274E-04  0.000000E+00  1.149597E-02  6.062915E-04  5.226775E-19  1.372360E-01  0.000000E+00
  9.072040E-02 -3.331106E-04  5.000000E-01  9.163658E-02 -4.017158E-04  0.000000E+00  1.149525E-02  6.267964E-04  6.984659E-19  1.359466E-01  0.000000E+00
  1.008780E-01  2.321051E-04  5.000000E-01  1.018968E-01  1.692080E-04  0.000000E+00  1.148419E-02  6.561949E-04  9.456146E-19  1.324060E-01  0.000000E+00
  1.116380E-01  8.635388E-04  5.000000E-01  1.127654E-01  8.070185E-04  0.000000E+00  1.143479E-02  6.945233E-04  3.142551E-19  1.289903E-01  0.000000E+00
  1.230100E-01  1.577824E-03  5.000000E-01  1.242523E-01  1.528517E-03  0.000000E+00  1.133032E-02  7.415679E-04 -2.854292E-19  1.263654E-01  0.000000E+00
  1.350030E-01  2.394713E-03  5.000000E-01  1.363664E-01  2.353656E-03  0.000000E+00  1.115138E-02  7.956545E-04 -2.426630E-19  1.250625E-01  0.000000E+00
  1.350030E-01  2.394713E-03  5.000000E-01  1.363664E-01  2.353656E-03  0.000000E+00  1.115138E-02  7.956545E-04 -2.426630E-19  1.250625E-01  0.000000E+00
  1.476220E-01  3.336705E-03  5.000000E-01  1.491128E-01  3.305161E-03  0.000000E+00  1.088107E-02  8.534490E-04 -2.165588E-21  1.259660E-01  0.000000E+00
  1.608730E-01  4.427807E-03  5.000000E-01  1.624976E-01  4.407282E-03  0.000000E+00  1.051550E-02  9.101272E-04  8.162272E-19  1.301561E-01  0.000000E+00
  1.747560E-01  5.690390E-03  5.000000E-01  1.765208E-01  5.682615E-03  0.000000E+00  1.007072E-02  9.588072E-04  1.374249E-18  1.384731E-01  0.000000E+00
  1.892730E-01  7.137166E-03  5.000000E-01  1.911844E-01  7.144002E-03  0.000000E+00  9.584138E-03  9.887103E-04  5.309207E-19  1.512747E-01  0.000000E+00
  2.044180E-01  8.756762E-03  5.000000E-01  2.064824E-01  8.779954E-03  0.000000E+00  9.116951E-03  9.864188E-04 -1.222401E-18  1.695599E-01  0.000000E+00
  2.201880E-01  1.048543E-02  5.000000E-01  2.224117E-01  1.052608E-02  0.000000E+00  8.726652E-03  9.525238E-04 -8.699640E-19  1.911753E-01  0.000000E+00
  2.365750E-01  1.226417E-02  5.000000E-01  2.389641E-01  1.232279E-02  0.000000E+00  8.423857E-03  9.031081E-04  5.205241E-19  2.106356E-01  0.000000E+00
  2.535710E-01  1.406099E-02  5.000000E-01  2.561318E-01  1.413775E-02  0.000000E+00  8.185094E-03  8.489742E-04 -9.205798E-19  2.262899E-01  0.000000E+00
  2.711570E-01  1.584920E-02  5.000000E-01  2.738954E-01  1.594402E-02  0.000000E+00  7.992231E-03  7.921242E-04 -1.429695E-18  2.397412E-01  0.000000E+00
  2.893100E-01  1.760143E-02  5.000000E-01  2.922317E-01  1.771394E-02  0.000000E+00  7.841928E-03  7.323040E-04  6.376208E-19  2.520268E-01  0.000000E+00
  3.080020E-01  1.928724E-02  5.000000E-01  3.111125E-01  1.941677E-02  0.000000E+00  7.732577E-03  6.705138E-04  1.075174E-18  2.627752E-01  0.000000E+00
  3.271950E-01  2.088360E-02  5.000000E-01  3.304993E-01  2.102926E-02  0.000000E+00  7.656674E-03  6.084285E-04  2.531822E-19  2.715253E-01  0.000000E+00
  3.468470E-01  2.237159E-02  5.000000E-01  3.503498E-01  2.253228E-02  0.000000E+00  7.603441E-03  5.476839E-04 -5.627195E-19  2.783847E-01  0.000000E+00
  3.669110E-01  2.374218E-02  5.000000E-01  3.706164E-01  2.391671E-02  0.000000E+00  7.561886E-03  4.900133E-04 -5.006261E-19  2.835550E-01  0.000000E+00
  3.873360E-01  2.499353E-02  5.000000E-01  3.912477E-01  2.518069E-02  0.000000E+00  7.523795E-03  4.356477E-04  8.882516E-20  2.875435E-01  0.000000E+00
  4.080670E-01  2.612407E-02  5.000000E-01  4.121880E-01  2.632266E-02  0.000000E+00  7.486313E-03  3.832807E-04  3.953232E-19  2.909885E-01  0.000000E+00
  4.290470E-01  2.712803E-02  5.000000E-01  4.333799E-01  2.733675E-02  0.000000E+00  7.450522E-03  3.318090E-04  1.276959E-19  2.941021E-01  0.000000E+00
  4.502140E-01  2.800004E-02  5.000000E-01  4.547607E-01  2.821756E-02  0.000000E+00  7.418384E-03  2.808600E-04 -1.017166E-18  2.967584E-01  0.000000E+00
  4.715070E-01  2.873481E-02  5.000000E-01  4.762687E-01  2.895976E-02  0.000000E+00  7.392242E-03  2.300559E-04 -7.182700E-19  2.989353E-01  0.000000E+00
  4.928620E-01  2.932686E-02  5.000000E-01  4.978394E-01  2.955778E-02  0.000000E+00  7.375182E-03  1.789150E-04  9.422016E-19  3.006320E-01  0.000000E+00
  5.142140E-01  2.977074E-02  5.000000E-01  5.194070E-01  3.000615E-02  0.000000E+00  7.370530E-03  1.267932E-04  1.161478E-18  3.018145E-01  0.000000E+00
  5.355000E-01  3.006065E-02  5.000000E-01  5.409079E-01  3.029899E-02  0.000000E+00  7.380665E-03  7.332151E-05  6.431303E-19  3.023988E-01  0.000000E+00
  5.566560E-01  3.019301E-02  5.000000E-01  5.622776E-01  3.043269E-02  0.000000E+00  7.405283E-03  1.923131E-05 -3.726921E-19  3.021894E-01  0.000000E+00
  4.727610E-01  7.249226E-02  5.000000E-01  4.775354E-01  7.315911E-02  0.000000E+00  1.308603E-02 -1.037954E-03  4.013662E-19 -5.708971E-01  0.000000E+00
  4.515970E-01  7.410314E-02  5.000000E-01  4.561576E-01  7.478626E-02  0.000000E+00  1.344668E-02 -9.769134E-04 -5.312679E-19 -5.966313E-01  0.000000E+00
  4.305020E-01  7.556464E-02  5.000000E-01  4.348496E-01  7.626251E-02  0.000000E+00  1.381906E-02 -9.069822E-04 -9.385937E-19 -6.232249E-01  0.000000E+00
  4.095340E-01  7.686627E-02  5.000000E-01  4.136698E-01  7.757729E-02  0.000000E+00  1.420658E-02 -8.276905E-04 -9.172616E-19 -6.511682E-01  0.000000E+00
  3.887520E-01  7.799957E-02  5.000000E-01  3.926780E-01  7.872203E-02  0.000000E+00  1.461629E-02 -7.375240E-04 -3.668603E-19 -6.810203E-01  0.000000E+00
  3.682080E-01  7.895454E-02  5.000000E-01  3.719265E-01  7.968665E-02  0.000000E+00  1.505691E-02 -6.326274E-04  6.546248E-19 -7.127845E-01  0.000000E+00
  3.479570E-01  7.971751E-02  5.000000E-01  3.514710E-01  8.045733E-02  0.000000E+00  1.553299E-02 -5.081008E-04  1.004243E-18 -7.459081E-01  0.000000E+00
  3.280470E-01  8.027304E-02  5.000000E-01  3.313599E-01  8.101847E-02  0.000000E+00  1.604214E-02 -3.610264E-04  1.088465E-18 -7.799678E-01  0.000000E+00
  3.085240E-01  8.061032E-02  5.000000E-01  3.116397E-01  8.135915E-02  0.000000E+00  1.657942E-02 -1.909079E-04  6.987183E-19 -8.150171E-01  0.000000E+00
  2.894320E-01  8.072400E-02  5.000000E-01  2.923549E-01  8.147398E-02  0.000000E+00  1.714331E-02  4.221098E-06 -3.845917E-21 -8.513038E-01  0.000000E+00
  2.708110E-01  8.060825E-02  5.000000E-01  2.735459E-01  8.135706E-02  0.000000E+00  1.774105E-02  2.288679E-04 -6.926452E-19 -8.903833E-01  0.000000E+00
  2.526960E-01  8.025652E-02  5.000000E-01  2.552479E-01  8.100178E-02  0.000000E+00  1.840308E-02  4.905387E-04 -1.609551E-18 -9.360089E-01  0.000000E+00
  2.351200E-01  7.966354E-02  5.000000E-01  2.374944E-01  8.040281E-02  0.000000E+00  1.918892E-02  8.151662E-04 -2.063482E-18 -9.889967E-01  0.000000E+00
  2.181120E-01  7.879869E-02  5.000000E-01  2.203147E-01  7.952923E-02  0.000000E+00  2.014071E-02  1.249176E-03 -2.480587E-18 -1.043538E+00  0.000000E+00
  2.017010E-01  7.760709E-02  5.000000E-01  2.037380E-01  7.832559E-02  0.000000E+00  2.122985E-02  1.822618E-03 -2.432002E-18 -1.093789E+00  0.000000E+00
  1.859190E-01  7.605373E-02  5.000000E-01  1.877966E-01  7.675654E-02  0.000000E+00  2.237950E-02  2.539580E-03 -1.362974E-18 -1.136272E+00  0.000000E+00
  1.707920E-01  7.412077E-02  5.000000E-01  1.725168E-01  7.480407E-02  0.000000E+00  2.350466E-02  3.398079E-03 -6.740343E-19 -1.166299E+00  0.000000E+00
  1.563470E-01  7.180134E-02  5.000000E-01  1.579259E-01  7.246121E-02  0.000000E+00  2.451512E-02  4.386554E-03 -1.540784E-18 -1.178467E+00  0.000000E+00
  1.426070E-01  6.910066E-02  5.000000E-01  1.440472E-01  6.973325E-02  0.000000E+00  2.531829E-02  5.470354E-03 -3.428619E-18 -1.168916E+00  0.000000E+00
  1.295900E-01  6.604162E-02  5.000000E-01  1.308987E-01  6.664333E-02  0.000000E+00  2.583846E-02  6.591328E-03 -4.796285E-18 -1.136785E+00  0.000000E+00
  1.173060E-01  6.266524E-02  5.000000E-01  1.184907E-01  6.323285E-02  0.000000E+00  2.603833E-02  7.687025E-03 -4.921610E-18 -1.083287E+00  0.000000E+00
  1.057600E-01  5.902265E-02  5.000000E-01  1.068281E-01  5.955347E-02  0.000000E+00  2.592156E-02  8.705819E-03 -2.530075E-18 -1.010789E+00  0.000000E+00
  9.495290E-02  5.517120E-02  5.000000E-01  9.591182E-02  5.566312E-02  0.000000E+00  2.552534E-02  9.608400E-03  7.205887E-19 -9.230434E-01  0.000000E+00
  8.487680E-02  5.117252E-02  5.000000E-01  8.573396E-02  5.162407E-02  0.000000E+00  2.490963E-02  1.037377E-02  6.506543E-18 -8.233736E-01  0.000000E+00
  8.487680E-02  5.117252E-02  5.000000E-01  8.573396E-02  5.162407E-02  0.000000E+00  2.490963E-02  1.037377E-02  6.506543E-18 -8.233736E-01  0.000000E+00
  7.552090E-02  4.708841E-02  5.000000E-01  7.628358E-02  4.749871E-02  0.000000E+00  2.412672E-02  1.099218E-02  1.196761E-17 -7.129747E-01  0.000000E+00
  6.687020E-02  4.297753E-02  5.000000E-01  6.754551E-02  4.334631E-02  0.000000E+00  2.320180E-02  1.143484E-02  9.578430E-18 -5.945049E-01  0.000000E+00
  5.889940E-02  3.890335E-02  5.000000E-01  5.949422E-02  3.923099E-02  0.000000E+00  2.216896E-02  1.166760E-02  7.896294E-18 -4.749417E-01  0.000000E+00
  5.157140E-02  3.493011E-02  5.000000E-01  5.209221E-02  3.521762E-02  0.000000E+00  2.111702E-02  1.171538E-02  9.432757E-18 -3.623745E-01  0.000000E+00
  4.484650E-02  3.111035E-02  5.000000E-01  4.529940E-02  3.135929E-02  0.000000E+00  2.018100E-02  1.169412E-02  9.007390E-18 -2.609690E-01  0.000000E+00
  3.869820E-02  2.747430E-02  5.000000E-01  3.908901E-02  2.768652E-02  0.000000E+00  1.949001E-02  1.176454E-02  1.077135E-18 -1.697215E-01  0.000000E+00
  3.311550E-02  2.403379E-02  5.000000E-01  3.344993E-02  2.421126E-02  0.000000E+00  1.910222E-02  1.204200E-02 -2.034698E-17 -8.340891E-02  0.000000E+00
  2.809130E-02  2.079626E-02  5.000000E-01  2.837499E-02  2.094104E-02  0.000000E+00  1.887409E-02  1.248975E-02 -4.962639E-17  1.318622E-02  0.000000E+00
  2.362330E-02  1.776579E-02  5.000000E-01  2.386187E-02  1.787997E-02  0.000000E+00  1.842018E-02  1.275847E-02 -9.788531E-17  1.300979E-01  0.000000E+00
  1.966610E-02  1.496626E-02  5.000000E-01  1.986471E-02  1.505217E-02  0.000000E+00  1.753173E-02  1.237032E-02 -1.605943E-16  2.417650E-01  0.000000E+00
  1.609460E-02  1.245039E-02  5.000000E-01  1.625714E-02  1.251088E-02  0.000000E+00  1.652611E-02  1.142069E-02 -1.075243E-16  3.212742E-01  0.000000E+00
  1.282740E-02  1.023737E-02  5.000000E-01  1.295694E-02  1.027551E-02  0.000000E+00  1.597035E-02  1.060522E-02  4.801435E-16  3.713137E-01  0.000000E+00
  9.860990E-03  8.308195E-03  5.000000E-01  9.960576E-03  8.326857E-03  0.000000E+00  1.625866E-02  1.055732E-02  2.304490E-15  4.098545E-01  0.000000E+00
  7.251350E-03  6.617795E-03  5.000000E-01  7.324582E-03  6.619386E-03  0.000000E+00  1.746420E-02  1.152662E-02  5.463575E-15  4.513506E-01  0.000000E+00
  5.038810E-03  5.133436E-03  5.000000E-01  5.089697E-03  5.120037E-03  0.000000E+00  1.946958E-02  1.357115E-02  6.780044E-15  4.984513E-01  0.000000E+00
  3.239710E-03  3.838508E-03  5.000000E-01  3.272429E-03  3.812032E-03  0.000000E+00  2.190323E-02  1.681025E-02 -4.479626E-15  5.578649E-01  0.000000E+00
  1.861880E-03  2.724105E-03  5.000000E-01  1.880684E-03  2.686374E-03  0.000000E+00  2.346127E-02  2.097249E-02 -4.860792E-14  6.461731E-01  0.000000E+00
  9.013910E-04  1.789446E-03  5.000000E-01  9.104952E-04  1.742277E-03  0.000000E+00  2.112585E-02  2.369619E-02 -1.466850E-13  7.839488E-01  0.000000E+00
  3.295630E-04  1.042905E-03  5.000000E-01  3.328923E-04  9.881959E-04  0.000000E+00  1.223080E-02  1.812953E-02 -2.961712E-13  9.525011E-01  0.000000E+00
  7.194000E-05  4.994656E-04  5.000000E-01  7.266764E-05  4.392685E-04  0.000000E+00  1.461591E-03 -2.420390E-03 -4.466090E-13  1.028772E+00  0.000000E+00
  4.516100E-06  1.729054E-04  5.000000E-01  4.562832E-06  1.094105E-04  0.000000E+00 -2.742378E-03 -2.547945E-02 -5.241582E-13  9.216535E-01  0.000000E+00
 -1.112850E-09  6.458882E-05  5.000000E-01  0.000000E+00  0.000000E+00  0.000000E+00 -1.330286E-03 -2.652779E-02 -5.368974E-13  8.172322E-01  0.000000E+00