 Title = "ADflow Slice Data"
Variables =  "CoordinateX"  "CoordinateY"  "CoordinateZ"  "XoC"  "YoC"  "ZoC" "VelocityX" "VelocityY" "VelocityZ" "CoefPressure" "Mach" 
Zone T= "Slice_0001 None Absolute Regular z = 0.50000000"
 Nodes =          192  Elements=          184  ZONETYPE=FELINESEG
 DATAPACKING=POINT
  5.566560E-01  1.208770E-02  5.000000E-01  5.622772E-01  1.224930E-02  0.000000E+00  8.750627E-03 -3.209454E-04 -4.377567E-19  2.316666E-01  0.000000E+00
  5.776220E-01  1.125040E-02  5.000000E-01  5.834549E-01  1.140354E-02  0.000000E+00  9.014817E-03 -3.883723E-04  3.213834E-19  2.185697E-01  0.000000E+00
  5.983370E-01  1.029540E-02  5.000000E-01  6.043791E-01  1.043890E-02  0.000000E+00  9.389715E-03 -4.599089E-04 -2.509499E-19  2.030256E-01  0.000000E+00
  6.187480E-01  9.239200E-03  5.000000E-01  6.249962E-01  9.372032E-03  0.000000E+00  9.909356E-03 -5.385371E-04 -4.976632E-19  1.836931E-01  0.000000E+00
  6.388030E-01  8.099400E-03  5.000000E-01  6.452538E-01  8.220722E-03  0.000000E+00  1.057530E-02 -6.267790E-04 -9.298538E-19  1.599886E-01  0.000000E+00
  6.584530E-01  6.893300E-03  5.000000E-01  6.651022E-01  7.002443E-03  0.000000E+00  1.132941E-02 -7.041486E-04 -2.192408E-19  1.330061E-01  0.000000E+00
  6.776550E-01  5.683069E-03  5.000000E-01  6.844981E-01  5.779990E-03  0.000000E+00  1.198178E-02 -6.726350E-04  6.465394E-19  9.674688E-02  0.000000E+00
  6.963720E-01  4.748830E-03  5.000000E-01  7.034041E-01  4.836317E-03  0.000000E+00  1.221690E-02 -4.375285E-04  4.948738E-19  5.223525E-02  0.000000E+00
  7.145680E-01  4.356392E-03  5.000000E-01  7.217839E-01  4.439917E-03  0.000000E+00  1.176501E-02 -3.644491E-05  9.318786E-19  1.867694E-02  0.000000E+00
  7.322140E-01  4.657229E-03  5.000000E-01  7.396080E-01  4.743792E-03  0.000000E+00  1.055023E-02  3.936399E-04  6.951637E-19  1.249661E-02  0.000000E+00
  7.492860E-01  5.701762E-03  5.000000E-01  7.568524E-01  5.798872E-03  0.000000E+00  8.714123E-03  7.089474E-04  7.482313E-20  3.771398E-02  0.000000E+00
  7.657630E-01  7.465600E-03  5.000000E-01  7.734958E-01  7.580522E-03  0.000000E+00  6.544768E-03  8.230778E-04 -2.506683E-19  8.731980E-02  0.000000E+00
  7.816300E-01  9.877486E-03  5.000000E-01  7.895231E-01  1.001676E-02  0.000000E+00  4.402125E-03  7.230738E-04  2.083682E-18  1.539245E-01  0.000000E+00
  7.968740E-01  1.270278E-02  5.000000E-01  8.049210E-01  1.287059E-02  0.000000E+00  2.673372E-03  4.958964E-04  4.268486E-18  2.359981E-01  0.000000E+00
  8.114890E-01  1.542541E-02  5.000000E-01  8.196836E-01  1.562071E-02  0.000000E+00  1.602142E-03  2.879799E-04  2.069122E-18  3.142945E-01  0.000000E+00
  8.254710E-01  1.771358E-02  5.000000E-01  8.338068E-01  1.793198E-02  0.000000E+00  1.130557E-03  1.683755E-04 -9.122952E-20  3.658625E-01  0.000000E+00
  8.388180E-01  1.943105E-02  5.000000E-01  8.472886E-01  1.966680E-02  0.000000E+00  1.037669E-03  1.115236E-04  1.287141E-19  3.941257E-01  0.000000E+00
  8.515320E-01  2.055956E-02  5.000000E-01  8.601309E-01  2.080671E-02  0.000000E+00  1.155926E-03  7.646713E-05  3.680966E-19  4.112227E-01  0.000000E+00
  8.636180E-01  2.114161E-02  5.000000E-01  8.723390E-01  2.139463E-02  0.000000E+00  1.409656E-03  3.729248E-05  3.303942E-19  4.229653E-01  0.000000E+00
  8.750810E-01  2.124616E-02  5.000000E-01  8.839177E-01  2.150024E-02  0.000000E+00  1.760828E-03 -1.948693E-05  3.428297E-19  4.302766E-01  0.000000E+00
  8.859290E-01  2.094983E-02  5.000000E-01  8.948753E-01  2.120091E-02  0.000000E+00  2.179111E-03 -9.971427E-05  1.132908E-18  4.334676E-01  0.000000E+00
  8.961710E-01  2.032706E-02  5.000000E-01  9.052207E-01  2.057186E-02  0.000000E+00  2.642286E-03 -2.045509E-04  2.237318E-18  4.332054E-01  0.000000E+00
  9.058170E-01  1.944662E-02  5.000000E-01  9.149641E-01  1.968253E-02  0.000000E+00  3.137599E-03 -3.330685E-04  2.253681E-18  4.299159E-01  0.000000E+00
  9.148770E-01  1.836983E-02  5.000000E-01  9.241156E-01  1.859486E-02  0.000000E+00  3.657516E-03 -4.833111E-04  1.296349E-18  4.238033E-01  0.000000E+00
  9.148770E-01  1.836983E-02  5.000000E-01  9.241156E-01  1.859486E-02  0.000000E+00  3.657516E-03 -4.833111E-04  1.296349E-18  4.238033E-01  0.000000E+00
  9.233640E-01  1.715046E-02  5.000000E-01  9.326883E-01  1.736318E-02  0.000000E+00  4.197232E-03 -6.529033E-04 -7.944163E-19  4.151443E-01  0.000000E+00
  9.312880E-01  1.583497E-02  5.000000E-01  9.406923E-01  1.603441E-02  0.000000E+00  4.754112E-03 -8.396084E-04 -1.190624E-18  4.042034E-01  0.000000E+00
  9.386620E-01  1.446305E-02  5.000000E-01  9.481408E-01  1.464863E-02  0.000000E+00  5.326797E-03 -1.041414E-03  4.671821E-19  3.911900E-01  0.000000E+00
  9.454960E-01  1.306878E-02  5.000000E-01  9.550438E-01  1.324029E-02  0.000000E+00  5.914822E-03 -1.256464E-03  1.163924E-18  3.763118E-01  0.000000E+00
  9.518040E-01  1.168066E-02  5.000000E-01  9.614155E-01  1.183815E-02  0.000000E+00  6.519189E-03 -1.483446E-03  1.387939E-18  3.597796E-01  0.000000E+00
  9.575950E-01  1.032324E-02  5.000000E-01  9.672650E-01  1.046702E-02  0.000000E+00  7.143016E-03 -1.721731E-03  1.280928E-18  3.417542E-01  0.000000E+00
  9.628810E-01  9.016849E-03  5.000000E-01  9.726044E-01  9.147435E-03  0.000000E+00  7.792699E-03 -1.971736E-03 -4.368130E-19  3.223767E-01  0.000000E+00
  9.676710E-01  7.778852E-03  5.000000E-01  9.774427E-01  7.896937E-03  0.000000E+00  8.480371E-03 -2.235660E-03 -1.750970E-18  3.018421E-01  0.000000E+00
  9.719750E-01  6.623596E-03  5.000000E-01  9.817902E-01  6.730015E-03  0.000000E+00  9.223802E-03 -2.517514E-03 -2.538114E-18  2.803210E-01  0.000000E+00
  9.758020E-01  5.563013E-03  5.000000E-01  9.856558E-01  5.658722E-03  0.000000E+00  1.003684E-02 -2.820791E-03 -4.989476E-18  2.578927E-01  0.000000E+00
  9.791590E-01  4.607229E-03  5.000000E-01  9.890467E-01  4.693287E-03  0.000000E+00  1.090721E-02 -3.141894E-03 -8.460209E-18  2.346382E-01  0.000000E+00
  9.820540E-01  3.764253E-03  5.000000E-01  9.919710E-01  3.841798E-03  0.000000E+00  1.177476E-02 -3.462796E-03 -5.011051E-18  2.114409E-01  0.000000E+00
  9.844930E-01  3.040781E-03  5.000000E-01  9.944346E-01  3.111020E-03  0.000000E+00  1.249121E-02 -3.731810E-03  1.347496E-17  1.892461E-01  0.000000E+00
  9.864820E-01  2.441973E-03  5.000000E-01  9.964437E-01  2.506165E-03  0.000000E+00  1.264036E-02 -3.815291E-03  3.131183E-17  1.634189E-01  0.000000E+00
  9.880240E-01  1.972258E-03  5.000000E-01  9.980013E-01  2.031707E-03  0.000000E+00  1.170251E-02 -3.600989E-03 -3.944237E-17  1.334129E-01  0.000000E+00
  9.891220E-01  1.634792E-03  5.000000E-01  9.991104E-01  1.690833E-03  0.000000E+00  1.160924E-02 -3.660212E-03 -4.248460E-16  1.467422E-01  0.000000E+00
  9.897810E-01  1.431238E-03  5.000000E-01  9.997760E-01  1.485224E-03  0.000000E+00  1.808629E-02 -4.298961E-03 -1.289554E-15  2.068848E-01  0.000000E+00
  9.900000E-01  1.363356E-03  5.000000E-01  9.999972E-01  1.416656E-03  0.000000E+00  1.373216E-02 -6.039777E-03 -1.694996E-15 -6.975864E-02  0.000000E+00
  9.900000E-01  1.549576E-03  5.000000E-01  9.999972E-01  1.604756E-03  0.000000E+00  1.189101E-03 -1.762827E-02 -1.039871E-15 -2.079713E-01  0.000000E+00
  9.900000E-01  1.735786E-03  5.000000E-01  9.999972E-01  1.792847E-03  0.000000E+00 -7.252295E-04 -1.924780E-02 -1.745220E-16 -3.068623E-02  0.000000E+00
  9.900000E-01  1.922006E-03  5.000000E-01  9.999972E-01  1.980948E-03  0.000000E+00 -2.747953E-04 -4.434577E-03  4.801141E-16 -4.552509E-02  0.000000E+00
  9.900000E-01  2.108226E-03  5.000000E-01  9.999972E-01  2.169048E-03  0.000000E+00  4.775361E-04 -2.076479E-03  1.214947E-15 -1.168762E-01  0.000000E+00
  9.900000E-01  2.294446E-03  5.000000E-01  9.999972E-01  2.357149E-03  0.000000E+00  4.484678E-03 -5.023357E-03  1.637502E-15 -5.311352E-02  0.000000E+00
  9.900000E-01  2.294446E-03  5.000000E-01  9.999972E-01  2.357149E-03  0.000000E+00  4.484678E-03 -5.023357E-03  1.637502E-15 -5.311352E-02  0.000000E+00
  9.897920E-01  2.378318E-03  5.000000E-01  9.997871E-01  2.441867E-03  0.000000E+00  4.255167E-03 -2.181530E-03  1.130448E-15  2.540324E-02  0.000000E+00
  9.891660E-01  2.629889E-03  5.000000E-01  9.991548E-01  2.695978E-03  0.000000E+00  1.091896E-04  1.303089E-05  3.761678E-16 -2.226679E-02  0.000000E+00
  9.881230E-01  3.047672E-03  5.000000E-01  9.981013E-01  3.117981E-03  0.000000E+00 -5.137573E-04  2.070727E-04  3.930433E-17 -3.428009E-02  0.000000E+00
  9.866580E-01  3.630462E-03  5.000000E-01  9.966215E-01  3.706656E-03  0.000000E+00 -4.017832E-04  1.544679E-04 -3.395847E-17 -3.514278E-02  0.000000E+00
  9.847700E-01  4.375306E-03  5.000000E-01  9.947144E-01  4.459022E-03  0.000000E+00 -3.608603E-04  1.416191E-04 -2.487533E-17 -4.161334E-02  0.000000E+00
  9.824550E-01  5.278831E-03  5.000000E-01  9.923760E-01  5.371671E-03  0.000000E+00 -2.830591E-04  1.105266E-04 -1.067240E-17 -5.230010E-02  0.000000E+00
  9.797070E-01  6.336874E-03  5.000000E-01  9.896003E-01  6.440398E-03  0.000000E+00 -1.016875E-04  3.937323E-05 -4.568056E-18 -6.576875E-02  0.000000E+00
  9.765220E-01  7.543675E-03  5.000000E-01  9.863831E-01  7.659385E-03  0.000000E+00  1.881910E-04 -6.989689E-05 -1.148836E-18 -8.253763E-02  0.000000E+00
  9.728930E-01  8.892600E-03  5.000000E-01  9.827175E-01  9.021932E-03  0.000000E+00  5.911113E-04 -2.161622E-04  9.723237E-19 -1.031813E-01  0.000000E+00
  9.688130E-01  1.037538E-02  5.000000E-01  9.785963E-01  1.051969E-02  0.000000E+00  1.116377E-03 -3.989180E-04 -3.014616E-20 -1.280671E-01  0.000000E+00
  9.642740E-01  1.198210E-02  5.000000E-01  9.740114E-01  1.214263E-02  0.000000E+00  1.774034E-03 -6.164217E-04 -9.464596E-19 -1.574947E-01  0.000000E+00
  9.592670E-01  1.370087E-02  5.000000E-01  9.689539E-01  1.387875E-02  0.000000E+00  2.572180E-03 -8.648320E-04 -1.221081E-18 -1.916016E-01  0.000000E+00
  9.537850E-01  1.551712E-02  5.000000E-01  9.634165E-01  1.571334E-02  0.000000E+00  3.513625E-03 -1.136843E-03 -4.178383E-19 -2.302195E-01  0.000000E+00
  9.478160E-01  1.741408E-02  5.000000E-01  9.573872E-01  1.762946E-02  0.000000E+00  4.594703E-03 -1.421358E-03  1.685215E-18 -2.730492E-01  0.000000E+00
  9.413520E-01  1.937140E-02  5.000000E-01  9.508580E-01  1.960655E-02  0.000000E+00  5.806781E-03 -1.704141E-03  1.814154E-18 -3.195309E-01  0.000000E+00
  9.343800E-01  2.136546E-02  5.000000E-01  9.438156E-01  2.162075E-02  0.000000E+00  7.136614E-03 -1.968285E-03  4.743228E-19 -3.688143E-01  0.000000E+00
  9.268920E-01  2.336774E-02  5.000000E-01  9.362519E-01  2.364325E-02  0.000000E+00  8.567000E-03 -2.194513E-03  1.613598E-19 -4.197741E-01  0.000000E+00
  9.188750E-01  2.534553E-02  5.000000E-01  9.281540E-01  2.564101E-02  0.000000E+00  1.007596E-02 -2.361516E-03  9.441733E-19 -4.708562E-01  0.000000E+00
  9.103190E-01  2.726019E-02  5.000000E-01  9.195116E-01  2.757501E-02  0.000000E+00  1.163462E-02 -2.446268E-03  1.533409E-18 -5.201073E-01  0.000000E+00
  9.012130E-01  2.906711E-02  5.000000E-01  9.103136E-01  2.940017E-02  0.000000E+00  1.320414E-02 -2.424651E-03  1.655503E-18 -5.649192E-01  0.000000E+00
  8.915460E-01  3.071493E-02  5.000000E-01  9.005490E-01  3.106462E-02  0.000000E+00  1.472931E-02 -2.273361E-03  1.593177E-18 -6.019546E-01  0.000000E+00
  8.813080E-01  3.214581E-02  5.000000E-01  8.902076E-01  3.250996E-02  0.000000E+00  1.613123E-02 -1.973562E-03  2.106973E-18 -6.269036E-01  0.000000E+00
  8.704900E-01  3.329579E-02  5.000000E-01  8.792804E-01  3.367155E-02  0.000000E+00  1.730053E-02 -1.518069E-03  2.353029E-18 -6.346146E-01  0.000000E+00
  8.704900E-01  3.329579E-02  5.000000E-01  8.792804E-01  3.367155E-02  0.000000E+00  1.730053E-02 -1.518069E-03  2.353029E-18 -6.346146E-01  0.000000E+00
  8.590830E-01  3.409747E-02  5.000000E-01  8.677582E-01  3.448133E-02  0.000000E+00  1.809977E-02 -9.231863E-04  2.686893E-18 -6.199575E-01  0.000000E+00
  8.470810E-01  3.448604E-02  5.000000E-01  8.556350E-01  3.487382E-02  0.000000E+00  1.837983E-02 -2.409299E-04  2.467149E-18 -5.782214E-01  0.000000E+00
  8.344780E-01  3.440939E-02  5.000000E-01  8.429047E-01  3.479640E-02  0.000000E+00  1.800235E-02  4.325174E-04  1.327488E-18 -5.055729E-01  0.000000E+00
  8.212700E-01  3.384822E-02  5.000000E-01  8.295634E-01  3.422955E-02  0.000000E+00  1.687150E-02  9.591929E-04  1.020078E-18 -4.018368E-01  0.000000E+00
  8.074550E-01  3.285093E-02  5.000000E-01  8.156088E-01  3.322220E-02  0.000000E+00  1.499653E-02  1.189513E-03  6.049992E-19 -2.779486E-01  0.000000E+00
  7.930350E-01  3.158866E-02  5.000000E-01  8.010432E-01  3.194719E-02  0.000000E+00  1.258462E-02  1.040687E-03 -7.957180E-19 -1.632277E-01  0.000000E+00
  7.780130E-01  3.042312E-02  5.000000E-01  7.858695E-01  3.076987E-02  0.000000E+00  1.005837E-02  6.116534E-04 -9.953331E-19 -8.757127E-02  0.000000E+00
  7.623950E-01  2.980245E-02  5.000000E-01  7.700938E-01  3.014293E-02  0.000000E+00  7.852543E-03  1.629053E-04 -3.797419E-19 -4.664654E-02  0.000000E+00
  7.461930E-01  2.987063E-02  5.000000E-01  7.537282E-01  3.021180E-02  0.000000E+00  6.177417E-03 -1.466974E-04 -7.046619E-19 -2.577816E-02  0.000000E+00
  7.294180E-01  3.067962E-02  5.000000E-01  7.367838E-01  3.102897E-02  0.000000E+00  5.065024E-03 -3.412652E-04 -3.669564E-19 -2.532143E-02  0.000000E+00
  7.120900E-01  3.223566E-02  5.000000E-01  7.192808E-01  3.260071E-02  0.000000E+00  4.510169E-03 -4.835335E-04  1.336574E-20 -4.579239E-02  0.000000E+00
  6.942280E-01  3.447301E-02  5.000000E-01  7.012385E-01  3.486065E-02  0.000000E+00  4.498290E-03 -6.219972E-04  1.791342E-19 -8.568709E-02  0.000000E+00
  6.758590E-01  3.723368E-02  5.000000E-01  6.826840E-01  3.764920E-02  0.000000E+00  4.974713E-03 -7.734027E-04 -8.040334E-20 -1.362235E-01  0.000000E+00
  6.570120E-01  4.025950E-02  5.000000E-01  6.636466E-01  4.070558E-02  0.000000E+00  5.792157E-03 -9.209815E-04 -1.588330E-19 -1.840319E-01  0.000000E+00
  6.377220E-01  4.330590E-02  5.000000E-01  6.441618E-01  4.378274E-02  0.000000E+00  6.747470E-03 -1.049566E-03  1.254733E-18 -2.276156E-01  0.000000E+00
  6.180260E-01  4.632550E-02  5.000000E-01  6.242670E-01  4.683284E-02  0.000000E+00  7.691897E-03 -1.159067E-03  1.731689E-18 -2.708510E-01  0.000000E+00
  5.979670E-01  4.930210E-02  5.000000E-01  6.040054E-01  4.983950E-02  0.000000E+00  8.554948E-03 -1.245973E-03  1.693618E-18 -3.124986E-01  0.000000E+00
  5.775910E-01  5.221910E-02  5.000000E-01  5.834236E-01  5.278595E-02  0.000000E+00  9.312830E-03 -1.306229E-03  1.150525E-18 -3.524586E-01  0.000000E+00
  5.569470E-01  5.505890E-02  5.000000E-01  5.625712E-01  5.565443E-02  0.000000E+00  9.978312E-03 -1.341035E-03 -3.753752E-19 -3.912667E-01  0.000000E+00
  5.360860E-01  5.780040E-02  5.000000E-01  5.414995E-01  5.842361E-02  0.000000E+00  1.058184E-02 -1.354273E-03 -9.140999E-19 -4.290939E-01  0.000000E+00
  5.150640E-01  6.042230E-02  5.000000E-01  5.202652E-01  6.107199E-02  0.000000E+00  1.115254E-02 -1.349557E-03 -1.651156E-18 -4.661484E-01  0.000000E+00
  4.939370E-01  6.290410E-02  5.000000E-01  4.989249E-01  6.357885E-02  0.000000E+00  1.171041E-02 -1.328935E-03 -2.077402E-18 -5.026235E-01  0.000000E+00
  4.727610E-01  6.522650E-02  5.000000E-01  4.775350E-01  6.592470E-02  0.000000E+00  1.226577E-02 -1.292994E-03 -1.712293E-18 -5.386482E-01  0.000000E+00
  5.770140E-06 -1.520700E-04  5.000000E-01  5.829532E-06 -1.140729E-04  0.000000E+00 -2.291800E-03  1.657588E-02 -9.536438E-13  9.247444E-01  0.000000E+00
  9.104010E-05 -4.917977E-04  5.000000E-01  9.196057E-05 -4.572312E-04  0.000000E+00  4.595575E-03 -2.801624E-03 -8.233727E-13  1.045078E+00  0.000000E+00
  4.796980E-04 -1.040867E-03  5.000000E-01  4.845432E-04 -1.011845E-03  0.000000E+00  1.935825E-02 -1.736851E-02 -5.538929E-13  9.174342E-01  0.000000E+00
  1.456590E-03 -1.726886E-03  5.000000E-01  1.471300E-03 -1.704792E-03  0.000000E+00  2.884452E-02 -1.650398E-02 -2.709536E-13  6.523837E-01  0.000000E+00
  3.096410E-03 -2.462029E-03  5.000000E-01  3.127679E-03 -2.447358E-03  0.000000E+00  2.904246E-02 -1.155505E-02 -8.327509E-14  4.867774E-01  0.000000E+00
  5.335170E-03 -3.222690E-03  5.000000E-01  5.389047E-03 -3.215701E-03  0.000000E+00  2.636578E-02 -8.190530E-03 -1.828451E-15  4.045328E-01  0.000000E+00
  8.129670E-03 -4.001125E-03  5.000000E-01  8.211766E-03 -4.001997E-03  0.000000E+00  2.392344E-02 -6.147115E-03  1.587776E-14  3.378494E-01  0.000000E+00
  1.145600E-02 -4.777009E-03  5.000000E-01  1.157169E-02 -4.785715E-03  0.000000E+00  2.166543E-02 -4.527504E-03  1.093513E-14  2.689654E-01  0.000000E+00
  1.529970E-02 -5.477518E-03  5.000000E-01  1.545420E-02 -5.493299E-03  0.000000E+00  1.894208E-02 -2.910964E-03  4.059987E-15  1.978551E-01  0.000000E+00
  1.962420E-02 -5.996377E-03  5.000000E-01  1.982237E-02 -6.017397E-03  0.000000E+00  1.576912E-02 -1.579189E-03  5.740457E-16  1.527821E-01  0.000000E+00
  2.439810E-02 -6.345747E-03  5.000000E-01  2.464448E-02 -6.370295E-03  0.000000E+00  1.337010E-02 -9.793048E-04 -3.383561E-16  1.715472E-01  0.000000E+00
  2.966100E-02 -6.727217E-03  5.000000E-01  2.996052E-02 -6.755617E-03  0.000000E+00  1.273158E-02 -9.773382E-04 -2.862187E-16  2.103740E-01  0.000000E+00
  3.543640E-02 -7.207603E-03  5.000000E-01  3.579425E-02 -7.240855E-03  0.000000E+00  1.327536E-02 -1.135075E-03 -1.052201E-16  2.058893E-01  0.000000E+00
  4.172970E-02 -7.762295E-03  5.000000E-01  4.215110E-02 -7.801147E-03  0.000000E+00  1.393683E-02 -1.210085E-03 -9.516668E-18  1.698720E-01  0.000000E+00
  4.854440E-02 -8.343119E-03  5.000000E-01  4.903461E-02 -8.387836E-03  0.000000E+00  1.424471E-02 -1.131773E-03  1.351581E-17  1.283173E-01  0.000000E+00
  5.588220E-02 -8.882449E-03  5.000000E-01  5.644651E-02 -8.932613E-03  0.000000E+00  1.422427E-02 -9.492467E-04  9.296225E-18  9.375460E-02  0.000000E+00
  6.375220E-02 -9.351873E-03  5.000000E-01  6.439598E-02 -9.406777E-03  0.000000E+00  1.408957E-02 -7.577264E-04  2.871755E-18  7.093309E-02  0.000000E+00
  7.217040E-02 -9.753821E-03  5.000000E-01  7.289919E-02 -9.812784E-03  0.000000E+00  1.402714E-02 -6.034616E-04 -3.226692E-19  5.562377E-02  0.000000E+00
  8.115500E-02 -1.009846E-02  5.000000E-01  8.197452E-02 -1.016091E-02  0.000000E+00  1.408059E-02 -4.712283E-04 -8.143064E-19  4.043772E-02  0.000000E+00
  9.072040E-02 -1.037341E-02  5.000000E-01  9.163651E-02 -1.043863E-02  0.000000E+00  1.417447E-02 -3.246971E-04  4.100288E-19  2.163640E-02  0.000000E+00
  1.008780E-01 -1.054728E-02  5.000000E-01  1.018967E-01 -1.061426E-02  0.000000E+00  1.421327E-02 -1.461263E-04  2.014951E-18  1.920663E-03  0.000000E+00
  1.116380E-01 -1.058378E-02  5.000000E-01  1.127653E-01 -1.065112E-02  0.000000E+00  1.412929E-02  6.596647E-05  2.805784E-18 -1.507951E-02  0.000000E+00
  1.230100E-01 -1.043786E-02  5.000000E-01  1.242522E-01 -1.050374E-02  0.000000E+00  1.386531E-02  3.065918E-04  2.238875E-18 -2.746440E-02  0.000000E+00
  1.350030E-01 -1.005839E-02  5.000000E-01  1.363663E-01 -1.012043E-02  0.000000E+00  1.336735E-02  5.620226E-04  1.359674E-18 -3.330212E-02  0.000000E+00
  1.350030E-01 -1.005839E-02  5.000000E-01  1.363663E-01 -1.012043E-02  0.000000E+00  1.336735E-02  5.620226E-04  1.359674E-18 -3.330212E-02  0.000000E+00
  1.476220E-01 -9.390153E-03  5.000000E-01  1.491127E-01 -9.445444E-03  0.000000E+00  1.260685E-02  8.090769E-04  7.557350E-19 -3.011721E-02  0.000000E+00
  1.608730E-01 -8.379600E-03  5.000000E-01  1.624975E-01 -8.424686E-03  0.000000E+00  1.161028E-02  1.018410E-03 -1.630025E-19 -1.541509E-02  0.000000E+00
  1.747560E-01 -6.986287E-03  5.000000E-01  1.765207E-01 -7.017303E-03  0.000000E+00  1.047240E-02  1.160929E-03 -5.722060E-19  1.202433E-02  0.000000E+00
  1.892730E-01 -5.206450E-03  5.000000E-01  1.911843E-01 -5.219493E-03  0.000000E+00  9.344680E-03  1.213662E-03 -1.765036E-18  5.163986E-02  0.000000E+00
  2.044180E-01 -3.111390E-03  5.000000E-01  2.064823E-01 -3.103277E-03  0.000000E+00  8.411395E-03  1.171421E-03 -1.150325E-18  1.029034E-01  0.000000E+00
  2.201880E-01 -8.961000E-04  5.000000E-01  2.224115E-01 -8.656163E-04  0.000000E+00  7.791328E-03  1.070008E-03  3.398717E-19  1.560397E-01  0.000000E+00
  2.365750E-01  1.291400E-03  5.000000E-01  2.389640E-01  1.343974E-03  0.000000E+00  7.445528E-03  9.598784E-04  5.888182E-19  1.960388E-01  0.000000E+00
  2.535710E-01  3.397200E-03  5.000000E-01  2.561316E-01  3.471038E-03  0.000000E+00  7.261180E-03  8.583713E-04  1.708862E-18  2.223210E-01  0.000000E+00
  2.711570E-01  5.376800E-03  5.000000E-01  2.738952E-01  5.470629E-03  0.000000E+00  7.170892E-03  7.614359E-04  7.857210E-19  2.421693E-01  0.000000E+00
  2.893100E-01  7.189800E-03  5.000000E-01  2.922315E-01  7.301937E-03  0.000000E+00  7.156006E-03  6.656783E-04 -5.456107E-20  2.584619E-01  0.000000E+00
  3.080020E-01  8.800700E-03  5.000000E-01  3.111123E-01  8.929104E-03  0.000000E+00  7.202882E-03  5.717317E-04 -1.991882E-20  2.705318E-01  0.000000E+00
  3.271950E-01  1.019360E-02  5.000000E-01  3.304991E-01  1.033607E-02  0.000000E+00  7.288538E-03  4.817073E-04 -2.788053E-19  2.778910E-01  0.000000E+00
  3.468470E-01  1.136660E-02  5.000000E-01  3.503495E-01  1.152091E-02  0.000000E+00  7.392591E-03  3.958717E-04  2.348321E-19  2.817329E-01  0.000000E+00
  3.669110E-01  1.232010E-02  5.000000E-01  3.706161E-01  1.248404E-02  0.000000E+00  7.504853E-03  3.137804E-04  3.490688E-19  2.832732E-01  0.000000E+00
  3.873360E-01  1.305910E-02  5.000000E-01  3.912474E-01  1.323051E-02  0.000000E+00  7.621210E-03  2.352957E-04 -6.305055E-19  2.829106E-01  0.000000E+00
  4.080670E-01  1.359080E-02  5.000000E-01  4.121877E-01  1.376758E-02  0.000000E+00  7.740474E-03  1.595141E-04 -4.864810E-19  2.810231E-01  0.000000E+00
  4.290470E-01  1.391920E-02  5.000000E-01  4.333796E-01  1.409929E-02  0.000000E+00  7.863405E-03  8.557386E-05 -3.744501E-19  2.778822E-01  0.000000E+00
  4.502140E-01  1.405010E-02  5.000000E-01  4.547604E-01  1.423151E-02  0.000000E+00  7.990446E-03  1.353953E-05 -1.221814E-18  2.734371E-01  0.000000E+00
  4.715070E-01  1.399200E-02  5.000000E-01  4.762684E-01  1.417283E-02  0.000000E+00  8.120997E-03 -5.625583E-05 -2.906829E-19  2.676578E-01  0.000000E+00
  4.928620E-01  1.375580E-02  5.000000E-01  4.978390E-01  1.393424E-02  0.000000E+00  8.255146E-03 -1.238634E-04  5.072787E-19  2.606152E-01  0.000000E+00
  5.142140E-01  1.335270E-02  5.000000E-01  5.194066E-01  1.352707E-02  0.000000E+00  8.396574E-03 -1.899745E-04 -4.388858E-19  2.523970E-01  0.000000E+00
  5.355000E-01  1.279280E-02  5.000000E-01  5.409076E-01  1.296152E-02  0.000000E+00  8.555271E-03 -2.553691E-04 -1.377859E-18  2.428562E-01  0.000000E+00
  5.566560E-01  1.208770E-02  5.000000E-01  5.622772E-01  1.224930E-02  0.000000E+00  8.750627E-03 -3.209454E-04 -4.377567E-19  2.316666E-01  0.000000E+00
  4.727610E-01  6.522650E-02  5.000000E-01  4.775350E-01  6.592470E-02  0.000000E+00  1.226577E-02 -1.292994E-03 -1.712293E-18 -5.386482E-01  0.000000E+00
  4.515970E-01  6.737130E-02  5.000000E-01  4.561573E-01  6.809116E-02  0.000000E+00  1.282218E-02 -1.241336E-03 -1.777065E-18 -5.742296E-01  0.000000E+00
  4.305020E-01  6.932210E-02  5.000000E-01  4.348493E-01  7.006166E-02  0.000000E+00  1.337990E-02 -1.173356E-03 -6.877691E-19 -6.094623E-01  0.000000E+00
  4.095340E-01  7.106460E-02  5.000000E-01  4.136696E-01  7.182176E-02  0.000000E+00  1.394037E-02 -1.089012E-03  4.112001E-19 -6.449240E-01  0.000000E+00
  3.887520E-01  7.258820E-02  5.000000E-01  3.926777E-01  7.336074E-02  0.000000E+00  1.451038E-02 -9.871377E-04  4.671419E-19 -6.812350E-01  0.000000E+00
  3.682080E-01  7.388110E-02  5.000000E-01  3.719262E-01  7.466670E-02  0.000000E+00  1.509989E-02 -8.637908E-04  6.006710E-19 -7.183877E-01  0.000000E+00
  3.479570E-01  7.492790E-02  5.000000E-01  3.514707E-01  7.572407E-02  0.000000E+00  1.571511E-02 -7.137172E-04  7.845665E-19 -7.557631E-01  0.000000E+00
  3.280470E-01  7.571200E-02  5.000000E-01  3.313597E-01  7.651609E-02  0.000000E+00  1.635421E-02 -5.334810E-04  5.040315E-19 -7.926522E-01  0.000000E+00
  3.085240E-01  7.622200E-02  5.000000E-01  3.116395E-01  7.703124E-02  0.000000E+00  1.700928E-02 -3.220690E-04  1.196603E-19 -8.285405E-01  0.000000E+00
  2.894320E-01  7.645200E-02  5.000000E-01  2.923547E-01  7.726356E-02  0.000000E+00  1.767119E-02 -7.818382E-05  5.302694E-20 -8.634477E-01  0.000000E+00
  2.708110E-01  7.639800E-02  5.000000E-01  2.735457E-01  7.720902E-02  0.000000E+00  1.834026E-02  2.003930E-04 -6.234206E-19 -8.994970E-01  0.000000E+00
  2.526960E-01  7.605800E-02  5.000000E-01  2.552478E-01  7.686558E-02  0.000000E+00  1.904658E-02  5.190739E-04 -2.131874E-18 -9.404995E-01  0.000000E+00
  2.351200E-01  7.543300E-02  5.000000E-01  2.374943E-01  7.623427E-02  0.000000E+00  1.984355E-02  9.046852E-04 -2.938286E-18 -9.841014E-01  0.000000E+00
  2.181120E-01  7.449620E-02  5.000000E-01  2.203145E-01  7.528801E-02  0.000000E+00  2.072958E-02  1.399948E-03 -2.807004E-18 -1.018867E+00  0.000000E+00
  2.017010E-01  7.319489E-02  5.000000E-01  2.037378E-01  7.397356E-02  0.000000E+00  2.159875E-02  1.991911E-03 -1.782864E-18 -1.041596E+00  0.000000E+00
  1.859190E-01  7.154157E-02  5.000000E-01  1.877964E-01  7.230354E-02  0.000000E+00  2.236060E-02  2.627597E-03 -1.824418E-19 -1.060160E+00  0.000000E+00
  1.707920E-01  6.957566E-02  5.000000E-01  1.725167E-01  7.031778E-02  0.000000E+00  2.303369E-02  3.310507E-03  1.697824E-18 -1.076178E+00  0.000000E+00
  1.563470E-01  6.730632E-02  5.000000E-01  1.579258E-01  6.802552E-02  0.000000E+00  2.366249E-02  4.082866E-03  1.729240E-18 -1.084392E+00  0.000000E+00
  1.426070E-01  6.472928E-02  5.000000E-01  1.440471E-01  6.542246E-02  0.000000E+00  2.424104E-02  4.961535E-03 -1.283797E-18 -1.079493E+00  0.000000E+00
  1.295900E-01  6.184774E-02  5.000000E-01  1.308986E-01  6.251183E-02  0.000000E+00  2.471642E-02  5.924794E-03 -2.371475E-18 -1.057889E+00  0.000000E+00
  1.173060E-01  5.868214E-02  5.000000E-01  1.184906E-01  5.931425E-02  0.000000E+00  2.501955E-02  6.928022E-03 -2.137919E-18 -1.017716E+00  0.000000E+00
  1.057600E-01  5.526589E-02  5.000000E-01  1.068280E-01  5.586351E-02  0.000000E+00  2.509441E-02  7.918939E-03 -1.950112E-18 -9.587858E-01  0.000000E+00
  9.495290E-02  5.164297E-02  5.000000E-01  9.591175E-02  5.220401E-02  0.000000E+00  2.491866E-02  8.843868E-03  9.811008E-20 -8.832285E-01  0.000000E+00
  8.487680E-02  4.786659E-02  5.000000E-01  8.573390E-02  4.838949E-02  0.000000E+00  2.450898E-02  9.661480E-03  5.785498E-18 -7.934983E-01  0.000000E+00
  8.487680E-02  4.786659E-02  5.000000E-01  8.573390E-02  4.838949E-02  0.000000E+00  2.450898E-02  9.661480E-03  5.785498E-18 -7.934983E-01  0.000000E+00
  7.552090E-02  4.399396E-02  5.000000E-01  7.628353E-02  4.447776E-02  0.000000E+00  2.389148E-02  1.034149E-02  1.073598E-17 -6.903545E-01  0.000000E+00
  6.687020E-02  4.008218E-02  5.000000E-01  6.754547E-02  4.052647E-02  0.000000E+00  2.307709E-02  1.083526E-02  1.124919E-17 -5.767285E-01  0.000000E+00
  5.889940E-02  3.619684E-02  5.000000E-01  5.949418E-02  3.660190E-02  0.000000E+00  2.209809E-02  1.109261E-02  1.008767E-17 -4.607011E-01  0.000000E+00
  5.157140E-02  3.240684E-02  5.000000E-01  5.209218E-02  3.277363E-02  0.000000E+00  2.105559E-02  1.113326E-02  8.389634E-18 -3.516613E-01  0.000000E+00
  4.484650E-02  2.876918E-02  5.000000E-01  4.529937E-02  2.909923E-02  0.000000E+00  2.010603E-02  1.108037E-02  7.462567E-18 -2.545662E-01  0.000000E+00
  3.869820E-02  2.531560E-02  5.000000E-01  3.908898E-02  2.561077E-02  0.000000E+00  1.940030E-02  1.110697E-02 -7.150738E-19 -1.685967E-01  0.000000E+00
  3.311550E-02  2.205668E-02  5.000000E-01  3.344991E-02  2.231895E-02  0.000000E+00  1.900841E-02  1.133531E-02 -2.371306E-17 -8.820117E-02  0.000000E+00
  2.809130E-02  1.899816E-02  5.000000E-01  2.837497E-02  1.922954E-02  0.000000E+00  1.876684E-02  1.171969E-02 -7.134414E-17  3.385828E-03  0.000000E+00
  2.362330E-02  1.614169E-02  5.000000E-01  2.386185E-02  1.634423E-02  0.000000E+00  1.822241E-02  1.187188E-02 -1.664409E-16  1.171845E-01  0.000000E+00
  1.966610E-02  1.351346E-02  5.000000E-01  1.986469E-02  1.368946E-02  0.000000E+00  1.709939E-02  1.126896E-02 -2.711744E-16  2.247598E-01  0.000000E+00
  1.609460E-02  1.117629E-02  5.000000E-01  1.625713E-02  1.132868E-02  0.000000E+00  1.572164E-02  1.002080E-02 -8.537014E-17  2.957366E-01  0.000000E+00
  1.282740E-02  9.152558E-03  5.000000E-01  1.295693E-02  9.284515E-03  0.000000E+00  1.474588E-02  8.886487E-03  1.217286E-15  3.317130E-01  0.000000E+00
  9.860990E-03  7.417212E-03  5.000000E-01  9.960569E-03  7.531645E-03  0.000000E+00  1.470317E-02  8.541201E-03  4.814053E-15  3.511714E-01  0.000000E+00
  7.251350E-03  5.913107E-03  5.000000E-01  7.324577E-03  6.012352E-03  0.000000E+00  1.581065E-02  9.263610E-03  1.027544E-14  3.694091E-01  0.000000E+00
  5.038810E-03  4.598127E-03  5.000000E-01  5.089694E-03  4.684092E-03  0.000000E+00  1.814863E-02  1.122138E-02  1.035954E-14  3.883104E-01  0.000000E+00
  3.239710E-03  3.449400E-03  5.000000E-01  3.272426E-03  3.523766E-03  0.000000E+00  2.174593E-02  1.490396E-02 -1.620175E-14  4.128905E-01  0.000000E+00
  1.861880E-03  2.452862E-03  5.000000E-01  1.880683E-03  2.517165E-03  0.000000E+00  2.591267E-02  2.103125E-02 -1.058692E-13  4.610171E-01  0.000000E+00
  9.013910E-04  1.603909E-03  5.000000E-01  9.104946E-04  1.659638E-03  0.000000E+00  2.775507E-02  2.919175E-02 -2.915315E-13  5.675330E-01  0.000000E+00
  3.295630E-04  9.098722E-04  5.000000E-01  3.328921E-04  9.585930E-04  0.000000E+00  2.258256E-02  3.446252E-02 -5.604441E-13  7.480233E-01  0.000000E+00
  7.194000E-05  3.900983E-04  5.000000E-01  7.266759E-05  4.335704E-04  0.000000E+00  1.128354E-02  2.849920E-02 -8.216384E-13  9.051338E-01  0.000000E+00
  4.516100E-06  6.914705E-05  5.000000E-01  4.562829E-06  1.093781E-04  0.000000E+00  2.402260E-03  1.623763E-02 -9.554983E-13  9.042971E-01  0.000000E+00
 -1.112850E-09 -3.913754E-05  5.000000E-01  0.000000E+00  0.000000E+00  0.000000E+00 -1.259045E-03  1.707228E-02 -9.750571E-13  8.391860E-01  0.000000E+00