 Title = "ADflow Slice Data"
Variables =  "CoordinateX"  "CoordinateY"  "CoordinateZ"  "XoC"  "YoC"  "ZoC" "VelocityX" "VelocityY" "VelocityZ" "CoefPressure" "Mach" 
Zone T= "Slice_0001 None Absolute Regular z = 0.50000000"
 Nodes =          192  Elements=          184  ZONETYPE=FELINESEG
 DATAPACKING=POINT
  5.566560E-01  2.995385E-02  5.000000E-01  5.622776E-01  3.019570E-02  0.000000E+00  7.408185E-03  2.058014E-05  2.525209E-18  3.017624E-01  0.000000E+00
  5.776220E-01  2.993744E-02  5.000000E-01  5.834553E-01  3.017913E-02  0.000000E+00  7.436463E-03 -3.162097E-05  2.576587E-18  3.007329E-01  0.000000E+00
  5.983370E-01  2.977769E-02  5.000000E-01  6.043795E-01  3.001777E-02  0.000000E+00  7.472802E-03 -8.256810E-05  1.951901E-18  2.989653E-01  0.000000E+00
  6.187480E-01  2.948439E-02  5.000000E-01  6.249967E-01  2.972150E-02  0.000000E+00  7.514907E-03 -1.319775E-04  8.741952E-19  2.966330E-01  0.000000E+00
  6.388030E-01  2.906855E-02  5.000000E-01  6.452542E-01  2.930146E-02  0.000000E+00  7.561022E-03 -1.798799E-04  3.445607E-19  2.938955E-01  0.000000E+00
  6.584530E-01  2.854146E-02  5.000000E-01  6.651026E-01  2.876905E-02  0.000000E+00  7.609442E-03 -2.262422E-04  8.243256E-19  2.908621E-01  0.000000E+00
  6.776550E-01  2.791495E-02  5.000000E-01  6.844985E-01  2.813622E-02  0.000000E+00  7.657331E-03 -2.706306E-04  1.692122E-18  2.875115E-01  0.000000E+00
  6.963720E-01  2.720288E-02  5.000000E-01  7.034046E-01  2.741695E-02  0.000000E+00  7.700980E-03 -3.129439E-04  2.284068E-18  2.839760E-01  0.000000E+00
  7.145680E-01  2.641659E-02  5.000000E-01  7.217843E-01  2.662272E-02  0.000000E+00  7.737025E-03 -3.534451E-04  2.515953E-18  2.804433E-01  0.000000E+00
  7.322140E-01  2.556701E-02  5.000000E-01  7.396085E-01  2.576456E-02  0.000000E+00  7.763058E-03 -3.919597E-04  2.129278E-18  2.769575E-01  0.000000E+00
  7.492860E-01  2.466523E-02  5.000000E-01  7.568529E-01  2.485368E-02  0.000000E+00  7.779543E-03 -4.280769E-04  1.528293E-18  2.736428E-01  0.000000E+00
  7.657630E-01  2.372219E-02  5.000000E-01  7.734963E-01  2.390112E-02  0.000000E+00  7.791084E-03 -4.620175E-04  6.055806E-20  2.703849E-01  0.000000E+00
  7.816300E-01  2.274802E-02  5.000000E-01  7.895236E-01  2.291710E-02  0.000000E+00  7.808581E-03 -4.986262E-04 -1.433463E-18  2.672513E-01  0.000000E+00
  7.968740E-01  2.173835E-02  5.000000E-01  8.049215E-01  2.189724E-02  0.000000E+00  7.855955E-03 -5.490512E-04 -1.779648E-18  2.652369E-01  0.000000E+00
  8.114890E-01  2.066458E-02  5.000000E-01  8.196841E-01  2.081263E-02  0.000000E+00  7.957339E-03 -6.170422E-04 -1.108124E-18  2.631327E-01  0.000000E+00
  8.254710E-01  1.952309E-02  5.000000E-01  8.338073E-01  1.965961E-02  0.000000E+00  8.112314E-03 -6.941880E-04 -4.670463E-19  2.583300E-01  0.000000E+00
  8.388180E-01  1.832901E-02  5.000000E-01  8.472891E-01  1.845347E-02  0.000000E+00  8.300793E-03 -7.714701E-04 -4.316804E-19  2.507317E-01  0.000000E+00
  8.515320E-01  1.710436E-02  5.000000E-01  8.601315E-01  1.721645E-02  0.000000E+00  8.503453E-03 -8.436858E-04 -1.486036E-19  2.415176E-01  0.000000E+00
  8.636180E-01  1.587125E-02  5.000000E-01  8.723396E-01  1.597089E-02  0.000000E+00  8.708697E-03 -9.087115E-04  3.310345E-19  2.315464E-01  0.000000E+00
  8.750810E-01  1.464922E-02  5.000000E-01  8.839183E-01  1.473651E-02  0.000000E+00  8.909703E-03 -9.660095E-04  1.963359E-19  2.212005E-01  0.000000E+00
  8.859290E-01  1.345380E-02  5.000000E-01  8.948759E-01  1.352903E-02  0.000000E+00  9.102217E-03 -1.015848E-03  1.124323E-19  2.107597E-01  0.000000E+00
  8.961710E-01  1.229665E-02  5.000000E-01  9.052213E-01  1.236019E-02  0.000000E+00  9.284254E-03 -1.058896E-03 -3.536130E-20  2.004428E-01  0.000000E+00
  9.058170E-01  1.118637E-02  5.000000E-01  9.149647E-01  1.123870E-02  0.000000E+00  9.455513E-03 -1.095963E-03 -2.521282E-19  1.903776E-01  0.000000E+00
  9.148770E-01  1.012908E-02  5.000000E-01  9.241162E-01  1.017073E-02  0.000000E+00  9.616421E-03 -1.127779E-03 -5.703705E-19  1.806184E-01  0.000000E+00
  9.148770E-01  1.012908E-02  5.000000E-01  9.241162E-01  1.017073E-02  0.000000E+00  9.616421E-03 -1.127779E-03 -5.703705E-19  1.806184E-01  0.000000E+00
  9.233640E-01  9.128934E-03  5.000000E-01  9.326889E-01  9.160483E-03  0.000000E+00  9.767832E-03 -1.155148E-03 -9.639877E-19  1.712220E-01  0.000000E+00
  9.312880E-01  8.188605E-03  5.000000E-01  9.406930E-01  8.210658E-03  0.000000E+00  9.911139E-03 -1.178890E-03 -5.579622E-19  1.622350E-01  0.000000E+00
  9.386620E-01  7.309488E-03  5.000000E-01  9.481414E-01  7.322662E-03  0.000000E+00  1.004784E-02 -1.199731E-03 -5.523677E-20  1.536508E-01  0.000000E+00
  9.454960E-01  6.492250E-03  5.000000E-01  9.550444E-01  6.497172E-03  0.000000E+00  1.017900E-02 -1.218187E-03  6.285103E-20  1.454386E-01  0.000000E+00
  9.518040E-01  5.736763E-03  5.000000E-01  9.614161E-01  5.734054E-03  0.000000E+00  1.030583E-02 -1.234799E-03 -8.854301E-19  1.376084E-01  0.000000E+00
  9.575950E-01  5.042634E-03  5.000000E-01  9.672656E-01  5.032916E-03  0.000000E+00  1.043047E-02 -1.250198E-03 -2.484547E-18  1.301490E-01  0.000000E+00
  9.628810E-01  4.409065E-03  5.000000E-01  9.726050E-01  4.392949E-03  0.000000E+00  1.055680E-02 -1.265083E-03  4.526975E-18  1.230308E-01  0.000000E+00
  9.676710E-01  3.835150E-03  5.000000E-01  9.774434E-01  3.813238E-03  0.000000E+00  1.069154E-02 -1.280496E-03  2.993945E-17  1.162454E-01  0.000000E+00
  9.719750E-01  3.319864E-03  5.000000E-01  9.817908E-01  3.292748E-03  0.000000E+00  1.084347E-02 -1.297579E-03  4.044832E-17  1.097854E-01  0.000000E+00
  9.758020E-01  2.862133E-03  5.000000E-01  9.856565E-01  2.830394E-03  0.000000E+00  1.101629E-02 -1.316891E-03 -6.834350E-17  1.036599E-01  0.000000E+00
  9.791590E-01  2.460970E-03  5.000000E-01  9.890474E-01  2.425180E-03  0.000000E+00  1.118852E-02 -1.336173E-03 -3.137616E-16  9.773342E-02  0.000000E+00
  9.820540E-01  2.115390E-03  5.000000E-01  9.919716E-01  2.076110E-03  0.000000E+00  1.129427E-02 -1.348613E-03 -3.124411E-16  9.234390E-02  0.000000E+00
  9.844930E-01  1.824540E-03  5.000000E-01  9.944353E-01  1.782323E-03  0.000000E+00  1.121117E-02 -1.336587E-03  4.413183E-16  8.837294E-02  0.000000E+00
  9.864820E-01  1.587632E-03  5.000000E-01  9.964443E-01  1.543022E-03  0.000000E+00  1.063291E-02 -1.254991E-03  1.282106E-15  8.220928E-02  0.000000E+00
  9.880240E-01  1.404066E-03  5.000000E-01  9.980019E-01  1.357603E-03  0.000000E+00  9.079800E-03 -1.088926E-03  1.399272E-16  6.792559E-02  0.000000E+00
  9.891220E-01  1.273309E-03  5.000000E-01  9.991110E-01  1.225525E-03  0.000000E+00  8.343920E-03 -1.106663E-03 -3.219630E-15  8.458959E-02  0.000000E+00
  9.897810E-01  1.194992E-03  5.000000E-01  9.997767E-01  1.146418E-03  0.000000E+00  1.563787E-02 -6.649357E-04 -3.720266E-15  1.780956E-01  0.000000E+00
  9.900000E-01  1.168923E-03  5.000000E-01  9.999979E-01  1.120085E-03  0.000000E+00  1.309010E-02 -1.661316E-03  4.342479E-15 -6.190467E-02  0.000000E+00
  9.900000E-01  1.355144E-03  5.000000E-01  9.999979E-01  1.308186E-03  0.000000E+00  1.212004E-03 -1.360395E-02  1.199648E-14 -2.045364E-01  0.000000E+00
  9.900000E-01  1.541355E-03  5.000000E-01  9.999979E-01  1.496278E-03  0.000000E+00 -7.382575E-04 -1.429391E-02  1.236288E-14 -2.463058E-02  0.000000E+00
  9.900000E-01  1.727576E-03  5.000000E-01  9.999979E-01  1.684379E-03  0.000000E+00 -4.675720E-04  3.462526E-03  8.992499E-15 -3.389835E-02  0.000000E+00
  9.900000E-01  1.913796E-03  5.000000E-01  9.999979E-01  1.872481E-03  0.000000E+00  8.128639E-04  3.548629E-03  3.814223E-15 -1.578098E-01  0.000000E+00
  9.900000E-01  2.100017E-03  5.000000E-01  9.999979E-01  2.060582E-03  0.000000E+00  8.234198E-03 -4.608074E-03  5.359311E-16 -5.971491E-02  0.000000E+00
  9.900000E-01  2.100017E-03  5.000000E-01  9.999979E-01  2.060582E-03  0.000000E+00  8.234198E-03 -4.608074E-03  5.359311E-16 -5.971491E-02  0.000000E+00
  9.897920E-01  2.143405E-03  5.000000E-01  9.997878E-01  2.104408E-03  0.000000E+00  9.101039E-03 -2.732235E-03 -6.706343E-16  8.422260E-02  0.000000E+00
  9.891660E-01  2.273477E-03  5.000000E-01  9.991555E-01  2.235794E-03  0.000000E+00  3.397483E-03 -6.166179E-04 -8.580556E-16  1.255581E-02  0.000000E+00
  9.881230E-01  2.489977E-03  5.000000E-01  9.981019E-01  2.454480E-03  0.000000E+00  3.262901E-03 -6.721187E-04 -1.953125E-16  4.117973E-05  0.000000E+00
  9.866580E-01  2.792497E-03  5.000000E-01  9.966221E-01  2.760055E-03  0.000000E+00  3.866994E-03 -8.049086E-04  2.857007E-16  6.438452E-03  0.000000E+00
  9.847700E-01  3.180428E-03  5.000000E-01  9.947151E-01  3.151904E-03  0.000000E+00  4.040700E-03 -8.272502E-04  2.305690E-16  4.534732E-03  0.000000E+00
  9.824550E-01  3.653014E-03  5.000000E-01  9.923767E-01  3.629263E-03  0.000000E+00  4.103953E-03 -8.334159E-04  1.672279E-17 -8.864253E-04  0.000000E+00
  9.797070E-01  4.209306E-03  5.000000E-01  9.896009E-01  4.191173E-03  0.000000E+00  4.197013E-03 -8.457232E-04 -6.307124E-17 -6.900661E-03  0.000000E+00
  9.765220E-01  4.848191E-03  5.000000E-01  9.863838E-01  4.836509E-03  0.000000E+00  4.331400E-03 -8.641572E-04 -3.762644E-17 -1.385804E-02  0.000000E+00
  9.728930E-01  5.568387E-03  5.000000E-01  9.827181E-01  5.563979E-03  0.000000E+00  4.505788E-03 -8.887077E-04 -4.660135E-18 -2.183786E-02  0.000000E+00
  9.688130E-01  6.368424E-03  5.000000E-01  9.785969E-01  6.372095E-03  0.000000E+00  4.713956E-03 -9.180263E-04  5.112306E-18 -3.064878E-02  0.000000E+00
  9.642740E-01  7.246694E-03  5.000000E-01  9.740121E-01  7.259235E-03  0.000000E+00  4.945921E-03 -9.498618E-04  3.473846E-18 -4.010607E-02  0.000000E+00
  9.592670E-01  8.201443E-03  5.000000E-01  9.689545E-01  8.223625E-03  0.000000E+00  5.192734E-03 -9.823603E-04  9.065041E-19 -5.013206E-02  0.000000E+00
  9.537850E-01  9.230769E-03  5.000000E-01  9.634171E-01  9.263347E-03  0.000000E+00  5.448017E-03 -1.014094E-03 -3.127505E-20 -6.056740E-02  0.000000E+00
  9.478160E-01  1.033266E-02  5.000000E-01  9.573879E-01  1.037637E-02  0.000000E+00  5.706764E-03 -1.044065E-03  4.038090E-19 -7.130295E-02  0.000000E+00
  9.413520E-01  1.150512E-02  5.000000E-01  9.508586E-01  1.156066E-02  0.000000E+00  5.965201E-03 -1.071643E-03 -6.613160E-20 -8.223464E-02  0.000000E+00
  9.343800E-01  1.274613E-02  5.000000E-01  9.438162E-01  1.281421E-02  0.000000E+00  6.219974E-03 -1.096361E-03 -7.805580E-19 -9.323445E-02  0.000000E+00
  9.268920E-01  1.405354E-02  5.000000E-01  9.362526E-01  1.413482E-02  0.000000E+00  6.468041E-03 -1.117924E-03 -1.221709E-18 -1.042365E-01  0.000000E+00
  9.188750E-01  1.542563E-02  5.000000E-01  9.281546E-01  1.552077E-02  0.000000E+00  6.706728E-03 -1.136170E-03 -1.030661E-18 -1.151322E-01  0.000000E+00
  9.103190E-01  1.686072E-02  5.000000E-01  9.195122E-01  1.697035E-02  0.000000E+00  6.933427E-03 -1.151124E-03 -2.082095E-19 -1.258630E-01  0.000000E+00
  9.012130E-01  1.835755E-02  5.000000E-01  9.103142E-01  1.848230E-02  0.000000E+00  7.145911E-03 -1.162867E-03 -3.514981E-19 -1.363677E-01  0.000000E+00
  8.915460E-01  1.991523E-02  5.000000E-01  9.005496E-01  2.005570E-02  0.000000E+00  7.342392E-03 -1.171733E-03 -1.469603E-20 -1.466362E-01  0.000000E+00
  8.813080E-01  2.153360E-02  5.000000E-01  8.902082E-01  2.169043E-02  0.000000E+00  7.521820E-03 -1.178246E-03  1.479704E-18 -1.566776E-01  0.000000E+00
  8.704900E-01  2.321307E-02  5.000000E-01  8.792810E-01  2.338685E-02  0.000000E+00  7.683865E-03 -1.183041E-03  2.136977E-18 -1.665209E-01  0.000000E+00
  8.704900E-01  2.321307E-02  5.000000E-01  8.792810E-01  2.338685E-02  0.000000E+00  7.683865E-03 -1.183041E-03  2.136977E-18 -1.665209E-01  0.000000E+00
  8.590830E-01  2.495501E-02  5.000000E-01  8.677588E-01  2.514638E-02  0.000000E+00  7.829279E-03 -1.187109E-03  4.129972E-19 -1.762889E-01  0.000000E+00
  8.470810E-01  2.676201E-02  5.000000E-01  8.556356E-01  2.697164E-02  0.000000E+00  7.960655E-03 -1.191562E-03 -4.493579E-19 -1.861742E-01  0.000000E+00
  8.344780E-01  2.863761E-02  5.000000E-01  8.429053E-01  2.886618E-02  0.000000E+00  8.082556E-03 -1.197446E-03 -4.180678E-19 -1.964061E-01  0.000000E+00
  8.212700E-01  3.058570E-02  5.000000E-01  8.295639E-01  3.083394E-02  0.000000E+00  8.201917E-03 -1.205713E-03 -9.351826E-19 -2.073839E-01  0.000000E+00
  8.074550E-01  3.260967E-02  5.000000E-01  8.156094E-01  3.287835E-02  0.000000E+00  8.328877E-03 -1.216933E-03 -4.240401E-20 -2.196244E-01  0.000000E+00
  7.930350E-01  3.471063E-02  5.000000E-01  8.010438E-01  3.500052E-02  0.000000E+00  8.474622E-03 -1.230460E-03  2.299068E-18 -2.332855E-01  0.000000E+00
  7.780130E-01  3.688435E-02  5.000000E-01  7.858700E-01  3.719620E-02  0.000000E+00  8.645431E-03 -1.244315E-03  2.670713E-18 -2.479489E-01  0.000000E+00
  7.623950E-01  3.912043E-02  5.000000E-01  7.700943E-01  3.945486E-02  0.000000E+00  8.840307E-03 -1.257271E-03  1.473614E-19 -2.634307E-01  0.000000E+00
  7.461930E-01  4.140944E-02  5.000000E-01  7.537287E-01  4.176698E-02  0.000000E+00  9.055700E-03 -1.269030E-03 -1.597442E-18 -2.798102E-01  0.000000E+00
  7.294180E-01  4.374144E-02  5.000000E-01  7.367843E-01  4.412253E-02  0.000000E+00  9.288298E-03 -1.278973E-03 -1.454371E-18 -2.969671E-01  0.000000E+00
  7.120900E-01  4.610512E-02  5.000000E-01  7.192813E-01  4.651009E-02  0.000000E+00  9.534549E-03 -1.286118E-03  2.642573E-19 -3.147564E-01  0.000000E+00
  6.942280E-01  4.848806E-02  5.000000E-01  7.012389E-01  4.891709E-02  0.000000E+00  9.790939E-03 -1.289658E-03  2.488811E-18 -3.330527E-01  0.000000E+00
  6.758590E-01  5.087736E-02  5.000000E-01  6.826844E-01  5.133052E-02  0.000000E+00  1.005426E-02 -1.289219E-03  2.459277E-18 -3.517458E-01  0.000000E+00
  6.570120E-01  5.326013E-02  5.000000E-01  6.636471E-01  5.373735E-02  0.000000E+00  1.032187E-02 -1.284681E-03  2.575554E-18 -3.707666E-01  0.000000E+00
  6.377220E-01  5.562402E-02  5.000000E-01  6.441623E-01  5.612512E-02  0.000000E+00  1.059220E-02 -1.276288E-03  4.183421E-18 -3.901673E-01  0.000000E+00
  6.180260E-01  5.795782E-02  5.000000E-01  6.242674E-01  5.848249E-02  0.000000E+00  1.086549E-02 -1.264291E-03  4.632159E-18 -4.100694E-01  0.000000E+00
  5.979670E-01  6.025004E-02  5.000000E-01  6.040058E-01  6.079786E-02  0.000000E+00  1.114396E-02 -1.248705E-03  3.935270E-18 -4.306853E-01  0.000000E+00
  5.775910E-01  6.248884E-02  5.000000E-01  5.834240E-01  6.305927E-02  0.000000E+00  1.143148E-02 -1.229245E-03  2.233440E-18 -4.522178E-01  0.000000E+00
  5.569470E-01  6.466146E-02  5.000000E-01  5.625715E-01  6.525382E-02  0.000000E+00  1.173195E-02 -1.204840E-03 -1.626780E-18 -4.745867E-01  0.000000E+00
  5.360860E-01  6.675208E-02  5.000000E-01  5.414999E-01  6.736556E-02  0.000000E+00  1.204685E-02 -1.174316E-03 -4.936318E-18 -4.976651E-01  0.000000E+00
  5.150640E-01  6.874513E-02  5.000000E-01  5.202656E-01  6.937873E-02  0.000000E+00  1.237568E-02 -1.137071E-03 -4.171041E-18 -5.214854E-01  0.000000E+00
  4.939370E-01  7.062593E-02  5.000000E-01  4.989252E-01  7.127853E-02  0.000000E+00  1.271763E-02 -1.092511E-03 -1.536757E-18 -5.460523E-01  0.000000E+00
  4.727610E-01  7.238067E-02  5.000000E-01  4.775354E-01  7.305099E-02  0.000000E+00  1.307192E-02 -1.039957E-03 -6.506245E-19 -5.713501E-01  0.000000E+00
  5.770140E-06 -5.188382E-05  5.000000E-01  5.829536E-06 -1.130507E-04  0.000000E+00  3.752750E-03 -2.179776E-02 -5.793730E-13  9.104420E-01  0.000000E+00
  9.104010E-05 -3.816590E-04  5.000000E-01  9.196063E-05 -4.461562E-04  0.000000E+00  1.999825E-02 -3.479667E-02 -4.876565E-13  9.169070E-01  0.000000E+00
  4.796980E-04 -8.882119E-04  5.000000E-01  4.845435E-04 -9.578247E-04  0.000000E+00  3.856718E-02 -3.412590E-02 -3.193806E-13  6.046909E-01  0.000000E+00
  1.456590E-03 -1.466545E-03  5.000000E-01  1.471301E-03 -1.541999E-03  0.000000E+00  4.178978E-02 -1.998538E-02 -1.619686E-13  2.725535E-01  0.000000E+00
  3.096410E-03 -2.015902E-03  5.000000E-01  3.127681E-03 -2.096903E-03  0.000000E+00  3.422979E-02 -9.818549E-03 -6.270279E-14  1.587135E-01  0.000000E+00
  5.335170E-03 -2.514989E-03  5.000000E-01  5.389050E-03 -2.601031E-03  0.000000E+00  2.736086E-02 -5.287156E-03 -1.250201E-14  1.419606E-01  0.000000E+00
  8.129670E-03 -2.958133E-03  5.000000E-01  8.211772E-03 -3.048650E-03  0.000000E+00  2.316196E-02 -3.158578E-03  7.267310E-15  1.204783E-01  0.000000E+00
  1.145600E-02 -3.327574E-03  5.000000E-01  1.157169E-02 -3.421821E-03  0.000000E+00  1.998319E-02 -1.742737E-03  9.682284E-15  8.458747E-02  0.000000E+00
  1.529970E-02 -3.556819E-03  5.000000E-01  1.545421E-02 -3.653382E-03  0.000000E+00  1.658533E-02 -5.466714E-04  5.416259E-15  4.630494E-02  0.000000E+00
  1.962420E-02 -3.554092E-03  5.000000E-01  1.982238E-02 -3.650627E-03  0.000000E+00  1.304601E-02  2.391484E-04  1.216673E-15  3.834544E-02  0.000000E+00
  2.439810E-02 -3.342281E-03  5.000000E-01  2.464449E-02 -3.436678E-03  0.000000E+00  1.066049E-02  4.665468E-04 -9.844563E-16  9.147123E-02  0.000000E+00
  2.966100E-02 -3.112550E-03  5.000000E-01  2.996054E-02 -3.204626E-03  0.000000E+00  1.023314E-02  3.997274E-04 -1.632076E-15  1.569087E-01  0.000000E+00
  3.543640E-02 -2.928400E-03  5.000000E-01  3.579427E-02 -3.018617E-03  0.000000E+00  1.097383E-02  3.136919E-04 -1.452703E-15  1.751165E-01  0.000000E+00
  4.172970E-02 -2.770802E-03  5.000000E-01  4.215112E-02 -2.859427E-03  0.000000E+00  1.173468E-02  2.903959E-04 -9.454649E-16  1.612685E-01  0.000000E+00
  4.854440E-02 -2.601255E-03  5.000000E-01  4.903464E-02 -2.688168E-03  0.000000E+00  1.205656E-02  3.418957E-04 -4.342370E-16  1.425319E-01  0.000000E+00
  5.588220E-02 -2.366010E-03  5.000000E-01  5.644655E-02 -2.450547E-03  0.000000E+00  1.200476E-02  4.328291E-04 -8.521746E-17  1.305837E-01  0.000000E+00
  6.375220E-02 -2.048464E-03  5.000000E-01  6.439603E-02 -2.129794E-03  0.000000E+00  1.181378E-02  5.095668E-04  7.532505E-17  1.285338E-01  0.000000E+00
  7.217040E-02 -1.660921E-03  5.000000E-01  7.289924E-02 -1.738338E-03  0.000000E+00  1.167001E-02  5.527821E-04  1.073079E-16  1.318392E-01  0.000000E+00
  8.115500E-02 -1.224092E-03  5.000000E-01  8.197457E-02 -1.297097E-03  0.000000E+00  1.162307E-02  5.770353E-04  8.297834E-17  1.339894E-01  0.000000E+00
  9.072040E-02 -7.407638E-04  5.000000E-01  9.163657E-02 -8.088875E-04  0.000000E+00  1.162283E-02  6.034201E-04  4.693909E-17  1.319126E-01  0.000000E+00
  1.008780E-01 -1.994425E-04  5.000000E-01  1.018968E-01 -2.620995E-04  0.000000E+00  1.160972E-02  6.394183E-04  2.016676E-17  1.276857E-01  0.000000E+00
  1.116380E-01  4.129235E-04  5.000000E-01  1.127654E-01  3.564507E-04  0.000000E+00  1.155395E-02  6.850099E-04  7.549778E-18  1.237365E-01  0.000000E+00
  1.230100E-01  1.114432E-03  5.000000E-01  1.242523E-01  1.065043E-03  0.000000E+00  1.143705E-02  7.397370E-04  4.191327E-18  1.207800E-01  0.000000E+00
  1.350030E-01  1.926405E-03  5.000000E-01  1.363664E-01  1.885216E-03  0.000000E+00  1.123828E-02  8.014692E-04  3.844097E-18  1.194036E-01  0.000000E+00
  1.350030E-01  1.926405E-03  5.000000E-01  1.363664E-01  1.885216E-03  0.000000E+00  1.123828E-02  8.014692E-04  3.844097E-18  1.194036E-01  0.000000E+00
  1.476220E-01  2.872894E-03  5.000000E-01  1.491128E-01  2.841264E-03  0.000000E+00  1.094060E-02  8.661953E-04  1.488879E-18  1.205578E-01  0.000000E+00
  1.608730E-01  3.979164E-03  5.000000E-01  1.624976E-01  3.958706E-03  0.000000E+00  1.054199E-02  9.282688E-04 -3.207832E-18  1.253829E-01  0.000000E+00
  1.747560E-01  5.268036E-03  5.000000E-01  1.765208E-01  5.260594E-03  0.000000E+00  1.006274E-02  9.799570E-04 -7.416805E-18  1.347257E-01  0.000000E+00
  1.892730E-01  6.750979E-03  5.000000E-01  1.911844E-01  6.758513E-03  0.000000E+00  9.546240E-03  1.009719E-03 -7.848422E-18  1.488910E-01  0.000000E+00
  2.044180E-01  8.412338E-03  5.000000E-01  2.064824E-01  8.436650E-03  0.000000E+00  9.060334E-03  1.004019E-03 -3.807863E-18  1.688156E-01  0.000000E+00
  2.201880E-01  1.018012E-02  5.000000E-01  2.224116E-01  1.022228E-02  0.000000E+00  8.665921E-03  9.650097E-04  6.783673E-20  1.919368E-01  0.000000E+00
  2.365750E-01  1.199001E-02  5.000000E-01  2.389641E-01  1.205045E-02  0.000000E+00  8.370564E-03  9.109245E-04  1.288976E-18  2.122204E-01  0.000000E+00
  2.535710E-01  1.380917E-02  5.000000E-01  2.561318E-01  1.388798E-02  0.000000E+00  8.144900E-03  8.532645E-04  1.484563E-18  2.280637E-01  0.000000E+00
  2.711570E-01  1.561083E-02  5.000000E-01  2.738954E-01  1.570784E-02  0.000000E+00  7.966598E-03  7.938347E-04 -4.798138E-19  2.414021E-01  0.000000E+00
  2.893100E-01  1.736860E-02  5.000000E-01  2.922317E-01  1.748336E-02  0.000000E+00  7.829763E-03  7.323415E-04 -2.080984E-18  2.534146E-01  0.000000E+00
  3.080020E-01  1.905434E-02  5.000000E-01  3.111125E-01  1.918612E-02  0.000000E+00  7.730617E-03  6.699514E-04 -9.658515E-19  2.637667E-01  0.000000E+00
  3.271950E-01  2.064879E-02  5.000000E-01  3.304993E-01  2.079667E-02  0.000000E+00  7.659975E-03  6.083724E-04  7.696517E-20  2.720535E-01  0.000000E+00
  3.468470E-01  2.213719E-02  5.000000E-01  3.503498E-01  2.230011E-02  0.000000E+00  7.607341E-03  5.485877E-04 -4.843298E-19  2.785973E-01  0.000000E+00
  3.669110E-01  2.351082E-02  5.000000E-01  3.706164E-01  2.368761E-02  0.000000E+00  7.564190E-03  4.915371E-04 -1.648350E-18  2.837343E-01  0.000000E+00
  3.873360E-01  2.476648E-02  5.000000E-01  3.912477E-01  2.495595E-02  0.000000E+00  7.524864E-03  4.372565E-04 -1.594489E-18  2.878250E-01  0.000000E+00
  4.080670E-01  2.590109E-02  5.000000E-01  4.121880E-01  2.610202E-02  0.000000E+00  7.487830E-03  3.844787E-04 -1.449364E-18  2.913597E-01  0.000000E+00
  4.290470E-01  2.690723E-02  5.000000E-01  4.333799E-01  2.711832E-02  0.000000E+00  7.454565E-03  3.321355E-04 -3.227282E-19  2.945210E-01  0.000000E+00
  4.502140E-01  2.777791E-02  5.000000E-01  4.547607E-01  2.799779E-02  0.000000E+00  7.426595E-03  2.801273E-04 -1.428768E-19  2.971472E-01  0.000000E+00
  4.715070E-01  2.850799E-02  5.000000E-01  4.762687E-01  2.873524E-02  0.000000E+00  7.404715E-03  2.285758E-04 -2.103838E-18  2.991533E-01  0.000000E+00
  4.928620E-01  2.909395E-02  5.000000E-01  4.978393E-01  2.932713E-02  0.000000E+00  7.390036E-03  1.772796E-04 -2.606289E-18  3.005943E-01  0.000000E+00
  5.142140E-01  2.953244E-02  5.000000E-01  5.194070E-01  2.977005E-02  0.000000E+00  7.384587E-03  1.256384E-04 -4.831503E-19  3.015571E-01  0.000000E+00
  5.355000E-01  2.981965E-02  5.000000E-01  5.409079E-01  3.006016E-02  0.000000E+00  7.390433E-03  7.328724E-05  1.891363E-18  3.019986E-01  0.000000E+00
  5.566560E-01  2.995385E-02  5.000000E-01  5.622776E-01  3.019570E-02  0.000000E+00  7.408185E-03  2.058014E-05  2.525209E-18  3.017624E-01  0.000000E+00
  4.727610E-01  7.238067E-02  5.000000E-01  4.775354E-01  7.305099E-02  0.000000E+00  1.307192E-02 -1.039957E-03 -6.506245E-19 -5.713501E-01  0.000000E+00
  4.515970E-01  7.399622E-02  5.000000E-01  4.561576E-01  7.468286E-02  0.000000E+00  1.343791E-02 -9.786746E-04 -2.558541E-18 -5.973146E-01  0.000000E+00
  4.305020E-01  7.546069E-02  5.000000E-01  4.348496E-01  7.616211E-02  0.000000E+00  1.381520E-02 -9.080816E-04 -4.677220E-18 -6.240031E-01  0.000000E+00
  4.095340E-01  7.676353E-02  5.000000E-01  4.136698E-01  7.747811E-02  0.000000E+00  1.420553E-02 -8.281188E-04 -5.012193E-18 -6.519462E-01  0.000000E+00
  3.887520E-01  7.789709E-02  5.000000E-01  3.926780E-01  7.862312E-02  0.000000E+00  1.461548E-02 -7.376002E-04 -5.210487E-18 -6.817498E-01  0.000000E+00
  3.682080E-01  7.885216E-02  5.000000E-01  3.719265E-01  7.958783E-02  0.000000E+00  1.505439E-02 -6.327941E-04 -6.871692E-18 -7.134751E-01  0.000000E+00
  3.479570E-01  7.961573E-02  5.000000E-01  3.514710E-01  8.035912E-02  0.000000E+00  1.552833E-02 -5.088766E-04 -8.663643E-18 -7.467086E-01  0.000000E+00
  3.280470E-01  8.017294E-02  5.000000E-01  3.313599E-01  8.092195E-02  0.000000E+00  1.603744E-02 -3.626997E-04 -1.051364E-17 -7.811428E-01  0.000000E+00
  3.085240E-01  8.051288E-02  5.000000E-01  3.116397E-01  8.126532E-02  0.000000E+00  1.657915E-02 -1.928254E-04 -1.198864E-17 -8.167264E-01  0.000000E+00
  2.894320E-01  8.062847E-02  5.000000E-01  2.923549E-01  8.138209E-02  0.000000E+00  1.715222E-02  3.575479E-06 -1.365809E-17 -8.535275E-01  0.000000E+00
  2.708110E-01  8.051236E-02  5.000000E-01  2.735459E-01  8.126480E-02  0.000000E+00  1.776212E-02  2.310770E-04 -1.636218E-17 -8.930358E-01  0.000000E+00
  2.526960E-01  8.015714E-02  5.000000E-01  2.552479E-01  8.090599E-02  0.000000E+00  1.843706E-02  4.969243E-04 -1.981281E-17 -9.389350E-01  0.000000E+00
  2.351200E-01  7.955723E-02  5.000000E-01  2.374944E-01  8.030003E-02  0.000000E+00  1.923408E-02  8.268183E-04 -2.395121E-17 -9.918332E-01  0.000000E+00
  2.181120E-01  7.868212E-02  5.000000E-01  2.203147E-01  7.941608E-02  0.000000E+00  2.019137E-02  1.266695E-03 -2.652204E-17 -1.045613E+00  0.000000E+00
  2.017010E-01  7.747725E-02  5.000000E-01  2.037380E-01  7.819903E-02  0.000000E+00  2.127528E-02  1.844132E-03 -2.647616E-17 -1.094555E+00  0.000000E+00
  1.859190E-01  7.591036E-02  5.000000E-01  1.877966E-01  7.661632E-02  0.000000E+00  2.240783E-02  2.559826E-03 -2.398124E-17 -1.135797E+00  0.000000E+00
  1.707920E-01  7.396701E-02  5.000000E-01  1.725168E-01  7.465335E-02  0.000000E+00  2.350971E-02  3.411456E-03 -1.882256E-17 -1.165041E+00  0.000000E+00
  1.563470E-01  7.164160E-02  5.000000E-01  1.579259E-01  7.230446E-02  0.000000E+00  2.449882E-02  4.389956E-03 -1.512700E-17 -1.176953E+00  0.000000E+00
  1.426070E-01  6.893924E-02  5.000000E-01  1.440472E-01  6.957480E-02  0.000000E+00  2.528833E-02  5.463534E-03 -1.480116E-17 -1.167627E+00  0.000000E+00
  1.295900E-01  6.588203E-02  5.000000E-01  1.308987E-01  6.648672E-02  0.000000E+00  2.580461E-02  6.576327E-03 -1.649724E-17 -1.136068E+00  0.000000E+00
  1.173060E-01  6.250999E-02  5.000000E-01  1.184907E-01  6.308062E-02  0.000000E+00  2.600908E-02  7.667162E-03 -1.975732E-17 -1.083329E+00  0.000000E+00
  1.057600E-01  5.887336E-02  5.000000E-01  1.068281E-01  5.940727E-02  0.000000E+00  2.590229E-02  8.684577E-03 -2.032639E-17 -1.011634E+00  0.000000E+00
  9.495290E-02  5.502875E-02  5.000000E-01  9.591182E-02  5.552384E-02  0.000000E+00  2.551813E-02  9.588587E-03 -2.210092E-17 -9.246389E-01  0.000000E+00
  8.487680E-02  5.103730E-02  5.000000E-01  8.573396E-02  5.149208E-02  0.000000E+00  2.491404E-02  1.035713E-02 -2.887458E-17 -8.256095E-01  0.000000E+00
  8.487680E-02  5.103730E-02  5.000000E-01  8.573396E-02  5.149208E-02  0.000000E+00  2.491404E-02  1.035713E-02 -2.887458E-17 -8.256095E-01  0.000000E+00
  7.552090E-02  4.696045E-02  5.000000E-01  7.628358E-02  4.737406E-02  0.000000E+00  2.414068E-02  1.097931E-02 -3.765541E-17 -7.157066E-01  0.000000E+00
  6.687020E-02  4.285670E-02  5.000000E-01  6.754551E-02  4.322887E-02  0.000000E+00  2.322228E-02  1.142522E-02 -4.330453E-17 -5.975933E-01  0.000000E+00
  5.889940E-02  3.878953E-02  5.000000E-01  5.949422E-02  3.912062E-02  0.000000E+00  2.219265E-02  1.165975E-02 -4.716050E-17 -4.783014E-01  0.000000E+00
  5.157140E-02  3.482329E-02  5.000000E-01  5.209221E-02  3.511433E-02  0.000000E+00  2.114120E-02  1.170748E-02 -5.020117E-17 -3.659952E-01  0.000000E+00
  4.484650E-02  3.101068E-02  5.000000E-01  4.529940E-02  3.126321E-02  0.000000E+00  2.020427E-02  1.168485E-02 -4.645159E-17 -2.648968E-01  0.000000E+00
  3.869820E-02  2.738195E-02  5.000000E-01  3.908901E-02  2.759784E-02  0.000000E+00  1.951256E-02  1.175359E-02 -5.547474E-17 -1.740192E-01  0.000000E+00
  3.311550E-02  2.394885E-02  5.000000E-01  3.344993E-02  2.413006E-02  0.000000E+00  1.912534E-02  1.202979E-02 -9.338450E-17 -8.810424E-02  0.000000E+00
  2.809130E-02  2.071873E-02  5.000000E-01  2.837499E-02  2.086732E-02  0.000000E+00  1.889789E-02  1.247622E-02 -1.598956E-16  8.194793E-03  0.000000E+00
  2.362330E-02  1.769555E-02  5.000000E-01  2.386187E-02  1.781361E-02  0.000000E+00  1.844021E-02  1.274043E-02 -2.501105E-16  1.250010E-01  0.000000E+00
  1.966610E-02  1.490326E-02  5.000000E-01  1.986471E-02  1.499313E-02  0.000000E+00  1.753878E-02  1.234058E-02 -2.967693E-16  2.365531E-01  0.000000E+00
  1.609460E-02  1.239501E-02  5.000000E-01  1.625714E-02  1.245954E-02  0.000000E+00  1.651134E-02  1.137250E-02 -8.573945E-17  3.156445E-01  0.000000E+00
  1.282740E-02  1.019012E-02  5.000000E-01  1.295694E-02  1.023238E-02  0.000000E+00  1.593139E-02  1.053716E-02  8.180091E-16  3.648406E-01  0.000000E+00
  9.860990E-03  8.269317E-03  5.000000E-01  9.960576E-03  8.292185E-03  0.000000E+00  1.620307E-02  1.047321E-02  2.923668E-15  4.021652E-01  0.000000E+00
  7.251350E-03  6.586998E-03  5.000000E-01  7.324582E-03  6.592876E-03  0.000000E+00  1.740991E-02  1.143476E-02  6.039815E-15  4.421781E-01  0.000000E+00
  5.038810E-03  5.110011E-03  5.000000E-01  5.089697E-03  5.100973E-03  0.000000E+00  1.944836E-02  1.348986E-02  7.233541E-15  4.875327E-01  0.000000E+00
  3.239710E-03  3.821463E-03  5.000000E-01  3.272429E-03  3.799413E-03  0.000000E+00  2.197443E-02  1.678712E-02 -3.414084E-15  5.449060E-01  0.000000E+00
  1.861880E-03  2.712213E-03  5.000000E-01  1.880684E-03  2.678961E-03  0.000000E+00  2.372875E-02  2.113094E-02 -4.723332E-14  6.310531E-01  0.000000E+00
  9.013910E-04  1.781308E-03  5.000000E-01  9.104951E-04  1.738654E-03  0.000000E+00  2.171242E-02  2.431431E-02 -1.500787E-13  7.675790E-01  0.000000E+00
  3.295630E-04  1.037068E-03  5.000000E-01  3.328923E-04  9.868979E-04  0.000000E+00  1.312481E-02  1.967027E-02 -3.127322E-13  9.384026E-01  0.000000E+00
  7.194000E-05  4.946660E-04  5.000000E-01  7.266764E-05  4.390187E-04  0.000000E+00  2.332695E-03  4.329593E-04 -4.802756E-13  1.022993E+00  0.000000E+00
  4.516100E-06  1.683518E-04  5.000000E-01  4.562832E-06  1.094091E-04  0.000000E+00 -2.265364E-03 -2.161642E-02 -5.720439E-13  9.270051E-01  0.000000E+00
 -1.112850E-09  6.003659E-05  5.000000E-01  0.000000E+00  0.000000E+00  0.000000E+00 -1.308418E-03 -2.258358E-02 -5.926147E-13  8.271677E-01  0.000000E+00