 Title = "ADflow Slice Data"
Variables =  "CoordinateX"  "CoordinateY"  "CoordinateZ"  "XoC"  "YoC"  "ZoC" "VelocityX" "VelocityY" "VelocityZ" "CoefPressure" "Mach" 
Zone T= "Slice_0001 None Absolute Regular z = 0.50000000"
 Nodes =          192  Elements=          184  ZONETYPE=FELINESEG
 DATAPACKING=POINT
  5.566560E-01  2.403100E-02  5.000000E-01  5.622776E-01  2.421805E-02  0.000000E+00  7.960187E-03 -4.447428E-05 -1.593335E-18  2.670220E-01  0.000000E+00
  5.776220E-01  2.385238E-02  5.000000E-01  5.834553E-01  2.403763E-02  0.000000E+00  8.017299E-03 -9.115490E-05 -1.684932E-18  2.640211E-01  0.000000E+00
  5.983370E-01  2.355816E-02  5.000000E-01  6.043795E-01  2.374044E-02  0.000000E+00  8.092967E-03 -1.364492E-04 -1.277613E-18  2.600275E-01  0.000000E+00
  6.187480E-01  2.316023E-02  5.000000E-01  6.249966E-01  2.333849E-02  0.000000E+00  8.182743E-03 -1.790807E-04 -1.128989E-18  2.551157E-01  0.000000E+00
  6.388030E-01  2.267389E-02  5.000000E-01  6.452542E-01  2.284723E-02  0.000000E+00  8.278500E-03 -2.179502E-04 -3.748347E-19  2.495438E-01  0.000000E+00
  6.584530E-01  2.211655E-02  5.000000E-01  6.651026E-01  2.228427E-02  0.000000E+00  8.367814E-03 -2.504189E-04  3.194547E-19  2.436645E-01  0.000000E+00
  6.776550E-01  2.151166E-02  5.000000E-01  6.844985E-01  2.167327E-02  0.000000E+00  8.430237E-03 -2.700774E-04 -1.291189E-19  2.372273E-01  0.000000E+00
  6.963720E-01  2.090141E-02  5.000000E-01  7.034045E-01  2.105685E-02  0.000000E+00  8.441779E-03 -2.734397E-04 -1.605179E-18  2.308726E-01  0.000000E+00
  7.145680E-01  2.031644E-02  5.000000E-01  7.217843E-01  2.046597E-02  0.000000E+00  8.389092E-03 -2.647841E-04 -1.455618E-18  2.264425E-01  0.000000E+00
  7.322140E-01  1.977047E-02  5.000000E-01  7.396085E-01  1.991449E-02  0.000000E+00  8.274231E-03 -2.506678E-04 -3.755372E-19  2.248287E-01  0.000000E+00
  7.492860E-01  1.926484E-02  5.000000E-01  7.568529E-01  1.940376E-02  0.000000E+00  8.110485E-03 -2.362108E-04  4.084359E-19  2.259283E-01  0.000000E+00
  7.657630E-01  1.879313E-02  5.000000E-01  7.734963E-01  1.892729E-02  0.000000E+00  7.917936E-03 -2.249979E-04  4.089421E-19  2.289736E-01  0.000000E+00
  7.816300E-01  1.834501E-02  5.000000E-01  7.895236E-01  1.847464E-02  0.000000E+00  7.724377E-03 -2.244125E-04  9.000221E-21  2.334722E-01  0.000000E+00
  7.968740E-01  1.789100E-02  5.000000E-01  8.049215E-01  1.801604E-02  0.000000E+00  7.573991E-03 -2.482109E-04 -4.360788E-19  2.402847E-01  0.000000E+00
  8.114890E-01  1.736865E-02  5.000000E-01  8.196841E-01  1.748842E-02  0.000000E+00  7.509482E-03 -3.001169E-04 -4.862803E-19  2.474613E-01  0.000000E+00
  8.254710E-01  1.674891E-02  5.000000E-01  8.338073E-01  1.686242E-02  0.000000E+00  7.537234E-03 -3.693477E-04 -5.134473E-19  2.510993E-01  0.000000E+00
  8.388180E-01  1.603201E-02  5.000000E-01  8.472891E-01  1.613828E-02  0.000000E+00  7.632995E-03 -4.451124E-04 -5.536378E-20  2.506346E-01  0.000000E+00
  8.515320E-01  1.523312E-02  5.000000E-01  8.601315E-01  1.533132E-02  0.000000E+00  7.770503E-03 -5.211395E-04  1.338711E-19  2.474205E-01  0.000000E+00
  8.636180E-01  1.437264E-02  5.000000E-01  8.723395E-01  1.446215E-02  0.000000E+00  7.932760E-03 -5.945306E-04  9.290974E-19  2.425297E-01  0.000000E+00
  8.750810E-01  1.347149E-02  5.000000E-01  8.839183E-01  1.355190E-02  0.000000E+00  8.108995E-03 -6.640566E-04  1.770556E-18  2.364459E-01  0.000000E+00
  8.859290E-01  1.254834E-02  5.000000E-01  8.948759E-01  1.261943E-02  0.000000E+00  8.291652E-03 -7.293290E-04  3.433786E-19  2.295076E-01  0.000000E+00
  8.961710E-01  1.161880E-02  5.000000E-01  9.052213E-01  1.168050E-02  0.000000E+00  8.475953E-03 -7.903293E-04 -8.491059E-19  2.220026E-01  0.000000E+00
  9.058170E-01  1.069591E-02  5.000000E-01  9.149647E-01  1.074829E-02  0.000000E+00  8.659362E-03 -8.472063E-04  4.303793E-21  2.141296E-01  0.000000E+00
  9.148770E-01  9.790309E-03  5.000000E-01  9.241162E-01  9.833546E-03  0.000000E+00  8.840527E-03 -9.001038E-04  9.727748E-19  2.060060E-01  0.000000E+00
  9.148770E-01  9.790309E-03  5.000000E-01  9.241162E-01  9.833546E-03  0.000000E+00  8.840527E-03 -9.001038E-04  9.727748E-19  2.060060E-01  0.000000E+00
  9.233640E-01  8.910722E-03  5.000000E-01  9.326889E-01  8.945076E-03  0.000000E+00  9.018885E-03 -9.493373E-04  9.067905E-19  1.977525E-01  0.000000E+00
  9.312880E-01  8.064030E-03  5.000000E-01  9.406929E-01  8.089834E-03  0.000000E+00  9.194673E-03 -9.953390E-04 -4.517817E-19  1.894714E-01  0.000000E+00
  9.386620E-01  7.255644E-03  5.000000E-01  9.481414E-01  7.273283E-03  0.000000E+00  9.368460E-03 -1.038501E-03 -4.302526E-19  1.812121E-01  0.000000E+00
  9.454960E-01  6.489854E-03  5.000000E-01  9.550444E-01  6.499760E-03  0.000000E+00  9.540605E-03 -1.079082E-03  7.135076E-19  1.729956E-01  0.000000E+00
  9.518040E-01  5.769890E-03  5.000000E-01  9.614161E-01  5.772525E-03  0.000000E+00  9.711719E-03 -1.117435E-03 -5.636411E-20  1.648728E-01  0.000000E+00
  9.575950E-01  5.098301E-03  5.000000E-01  9.672656E-01  5.094154E-03  0.000000E+00  9.883483E-03 -1.154030E-03 -1.630796E-18  1.568761E-01  0.000000E+00
  9.628810E-01  4.476954E-03  5.000000E-01  9.726050E-01  4.466532E-03  0.000000E+00  1.005940E-02 -1.189455E-03 -1.596946E-18  1.490131E-01  0.000000E+00
  9.676710E-01  3.907271E-03  5.000000E-01  9.774434E-01  3.891096E-03  0.000000E+00  1.024594E-02 -1.224678E-03 -6.338476E-19  1.413172E-01  0.000000E+00
  9.719750E-01  3.390282E-03  5.000000E-01  9.817908E-01  3.368886E-03  0.000000E+00  1.045168E-02 -1.260810E-03 -1.371442E-18  1.338180E-01  0.000000E+00
  9.758020E-01  2.926691E-03  5.000000E-01  9.856565E-01  2.900613E-03  0.000000E+00  1.067979E-02 -1.298380E-03 -3.307079E-18  1.265531E-01  0.000000E+00
  9.791590E-01  2.517040E-03  5.000000E-01  9.890474E-01  2.486825E-03  0.000000E+00  1.090803E-02 -1.334988E-03 -4.195186E-18  1.194265E-01  0.000000E+00
  9.820540E-01  2.161646E-03  5.000000E-01  9.919716E-01  2.127842E-03  0.000000E+00  1.107000E-02 -1.363416E-03  4.604803E-18  1.128274E-01  0.000000E+00
  9.844930E-01  1.860745E-03  5.000000E-01  9.944352E-01  1.823902E-03  0.000000E+00  1.104211E-02 -1.365127E-03  3.044271E-17  1.076485E-01  0.000000E+00
  9.864820E-01  1.614440E-03  5.000000E-01  9.964443E-01  1.575110E-03  0.000000E+00  1.051535E-02 -1.293199E-03  5.229580E-17  1.002916E-01  0.000000E+00
  9.880240E-01  1.422849E-03  5.000000E-01  9.980019E-01  1.381584E-03  0.000000E+00  9.013062E-03 -1.129786E-03 -4.035895E-17  8.518360E-02  0.000000E+00
  9.891220E-01  1.285984E-03  5.000000E-01  9.991110E-01  1.243338E-03  0.000000E+00  8.305760E-03 -1.146340E-03 -5.165937E-16  1.012834E-01  0.000000E+00
  9.897810E-01  1.203847E-03  5.000000E-01  9.997766E-01  1.160370E-03  0.000000E+00  1.542544E-02 -7.476258E-04 -1.553443E-15  1.920265E-01  0.000000E+00
  9.900000E-01  1.176481E-03  5.000000E-01  9.999979E-01  1.132728E-03  0.000000E+00  1.286297E-02 -1.796580E-03 -2.014406E-15 -4.500410E-02  0.000000E+00
  9.900000E-01  1.362702E-03  5.000000E-01  9.999979E-01  1.320829E-03  0.000000E+00  1.187924E-03 -1.355969E-02 -1.270936E-15 -1.847732E-01  0.000000E+00
  9.900000E-01  1.548912E-03  5.000000E-01  9.999979E-01  1.508920E-03  0.000000E+00 -7.241579E-04 -1.435243E-02 -3.334900E-16 -8.180787E-03  0.000000E+00
  9.900000E-01  1.735132E-03  5.000000E-01  9.999979E-01  1.697021E-03  0.000000E+00 -4.450478E-04  2.811046E-03  4.412177E-16 -1.766909E-02  0.000000E+00
  9.900000E-01  1.921353E-03  5.000000E-01  9.999979E-01  1.885122E-03  0.000000E+00  7.716020E-04  3.071817E-03  1.561097E-15 -1.355198E-01  0.000000E+00
  9.900000E-01  2.107573E-03  5.000000E-01  9.999979E-01  2.073223E-03  0.000000E+00  7.751932E-03 -4.530403E-03  2.363653E-15 -4.178853E-02  0.000000E+00
  9.900000E-01  2.107573E-03  5.000000E-01  9.999979E-01  2.073223E-03  0.000000E+00  7.751932E-03 -4.530403E-03  2.363653E-15 -4.178853E-02  0.000000E+00
  9.897920E-01  2.152692E-03  5.000000E-01  9.997878E-01  2.118798E-03  0.000000E+00  8.473107E-03 -2.630098E-03  1.688972E-15  9.445473E-02  0.000000E+00
  9.891660E-01  2.288025E-03  5.000000E-01  9.991554E-01  2.255498E-03  0.000000E+00  2.998314E-03 -5.627687E-04  5.496788E-16  2.553621E-02  0.000000E+00
  9.881230E-01  2.513460E-03  5.000000E-01  9.981019E-01  2.483209E-03  0.000000E+00  2.843906E-03 -6.101598E-04  4.661699E-17  1.316295E-02  0.000000E+00
  9.866580E-01  2.828878E-03  5.000000E-01  9.966221E-01  2.801812E-03  0.000000E+00  3.411127E-03 -7.411942E-04 -5.595103E-17  1.899367E-02  0.000000E+00
  9.847700E-01  3.234023E-03  5.000000E-01  9.947150E-01  3.211049E-03  0.000000E+00  3.575119E-03 -7.652285E-04 -3.637833E-17  1.688588E-02  0.000000E+00
  9.824550E-01  3.728603E-03  5.000000E-01  9.923767E-01  3.710623E-03  0.000000E+00  3.636149E-03 -7.737084E-04 -1.134961E-17  1.127066E-02  0.000000E+00
  9.797070E-01  4.312221E-03  5.000000E-01  9.896009E-01  4.300135E-03  0.000000E+00  3.727831E-03 -7.891786E-04 -1.063247E-18  4.951326E-03  0.000000E+00
  9.765220E-01  4.984370E-03  5.000000E-01  9.863837E-01  4.979073E-03  0.000000E+00  3.860927E-03 -8.116777E-04  1.056427E-18 -2.405733E-03  0.000000E+00
  9.728930E-01  5.744445E-03  5.000000E-01  9.827181E-01  5.746823E-03  0.000000E+00  4.034340E-03 -8.412262E-04  3.991821E-19 -1.091279E-02  0.000000E+00
  9.688130E-01  6.591669E-03  5.000000E-01  9.785969E-01  6.602603E-03  0.000000E+00  4.243166E-03 -8.766874E-04 -4.036959E-19 -2.042650E-02  0.000000E+00
  9.642740E-01  7.525135E-03  5.000000E-01  9.740120E-01  7.545496E-03  0.000000E+00  4.479269E-03 -9.160539E-04 -4.362518E-19 -3.080669E-02  0.000000E+00
  9.592670E-01  8.543745E-03  5.000000E-01  9.689545E-01  8.574393E-03  0.000000E+00  4.735489E-03 -9.576400E-04  3.387773E-19 -4.201562E-02  0.000000E+00
  9.537850E-01  9.646180E-03  5.000000E-01  9.634171E-01  9.687961E-03  0.000000E+00  5.006964E-03 -1.000100E-03  8.061341E-19 -5.392988E-02  0.000000E+00
  9.478160E-01  1.083085E-02  5.000000E-01  9.573878E-01  1.088459E-02  0.000000E+00  5.290083E-03 -1.042426E-03 -9.117773E-19 -6.648096E-02  0.000000E+00
  9.413520E-01  1.209598E-02  5.000000E-01  9.508586E-01  1.216250E-02  0.000000E+00  5.582485E-03 -1.083904E-03 -1.706481E-18 -7.959898E-02  0.000000E+00
  9.343800E-01  1.343946E-02  5.000000E-01  9.438162E-01  1.351954E-02  0.000000E+00  5.882232E-03 -1.123901E-03 -8.350635E-19 -9.318326E-02  0.000000E+00
  9.268920E-01  1.485861E-02  5.000000E-01  9.362525E-01  1.495303E-02  0.000000E+00  6.187604E-03 -1.161852E-03 -1.530317E-18 -1.071774E-01  0.000000E+00
  9.188750E-01  1.635066E-02  5.000000E-01  9.281546E-01  1.646015E-02  0.000000E+00  6.497101E-03 -1.197181E-03 -1.792923E-18 -1.214758E-01  0.000000E+00
  9.103190E-01  1.791217E-02  5.000000E-01  9.195122E-01  1.803743E-02  0.000000E+00  6.809172E-03 -1.229370E-03 -4.598023E-19 -1.360099E-01  0.000000E+00
  9.012130E-01  1.953923E-02  5.000000E-01  9.103142E-01  1.968092E-02  0.000000E+00  7.122317E-03 -1.257799E-03  3.893512E-19 -1.506642E-01  0.000000E+00
  8.915460E-01  2.122717E-02  5.000000E-01  9.005496E-01  2.138591E-02  0.000000E+00  7.434831E-03 -1.281892E-03 -6.996540E-19 -1.653519E-01  0.000000E+00
  8.813080E-01  2.297084E-02  5.000000E-01  8.902082E-01  2.314719E-02  0.000000E+00  7.744777E-03 -1.301044E-03 -9.015889E-20 -1.799416E-01  0.000000E+00
  8.704900E-01  2.476404E-02  5.000000E-01  8.792809E-01  2.495849E-02  0.000000E+00  8.049248E-03 -1.314518E-03  1.925098E-18 -1.942338E-01  0.000000E+00
  8.704900E-01  2.476404E-02  5.000000E-01  8.792809E-01  2.495849E-02  0.000000E+00  8.049248E-03 -1.314518E-03  1.925098E-18 -1.942338E-01  0.000000E+00
  8.590830E-01  2.659997E-02  5.000000E-01  8.677587E-01  2.681297E-02  0.000000E+00  8.344433E-03 -1.321812E-03  1.155616E-18 -2.081086E-01  0.000000E+00
  8.470810E-01  2.847162E-02  5.000000E-01  8.556355E-01  2.870352E-02  0.000000E+00  8.626554E-03 -1.322583E-03  7.135604E-19 -2.214463E-01  0.000000E+00
  8.344780E-01  3.037168E-02  5.000000E-01  8.429053E-01  3.062277E-02  0.000000E+00  8.891104E-03 -1.316513E-03  3.989352E-19 -2.339629E-01  0.000000E+00
  8.212700E-01  3.229292E-02  5.000000E-01  8.295639E-01  3.256341E-02  0.000000E+00  9.131048E-03 -1.303648E-03 -1.690471E-19 -2.452347E-01  0.000000E+00
  8.074550E-01  3.422939E-02  5.000000E-01  8.156094E-01  3.451944E-02  0.000000E+00  9.337364E-03 -1.285212E-03  7.303955E-20 -2.550279E-01  0.000000E+00
  7.930350E-01  3.617865E-02  5.000000E-01  8.010437E-01  3.648838E-02  0.000000E+00  9.504783E-03 -1.264321E-03 -5.295424E-19 -2.639105E-01  0.000000E+00
  7.780130E-01  3.814441E-02  5.000000E-01  7.858700E-01  3.847399E-02  0.000000E+00  9.638828E-03 -1.244289E-03 -1.601586E-19 -2.729685E-01  0.000000E+00
  7.623950E-01  4.013293E-02  5.000000E-01  7.700943E-01  4.048259E-02  0.000000E+00  9.751686E-03 -1.224272E-03 -2.922399E-19 -2.821592E-01  0.000000E+00
  7.461930E-01  4.213868E-02  5.000000E-01  7.537287E-01  4.250860E-02  0.000000E+00  9.848519E-03 -1.201762E-03 -1.794275E-18 -2.907603E-01  0.000000E+00
  7.294180E-01  4.415613E-02  5.000000E-01  7.367843E-01  4.454642E-02  0.000000E+00  9.924610E-03 -1.177788E-03 -2.604990E-18 -2.985225E-01  0.000000E+00
  7.120900E-01  4.618543E-02  5.000000E-01  7.192813E-01  4.659622E-02  0.000000E+00  9.971850E-03 -1.155528E-03 -2.175437E-18 -3.052005E-01  0.000000E+00
  6.942280E-01  4.823422E-02  5.000000E-01  7.012389E-01  4.866569E-02  0.000000E+00  9.985199E-03 -1.139681E-03 -7.928072E-19 -3.113685E-01  0.000000E+00
  6.758590E-01  5.032056E-02  5.000000E-01  6.826844E-01  5.077310E-02  0.000000E+00  9.975718E-03 -1.136511E-03  7.053141E-19 -3.195323E-01  0.000000E+00
  6.570120E-01  5.247281E-02  5.000000E-01  6.636471E-01  5.294710E-02  0.000000E+00  9.980134E-03 -1.148954E-03  1.826922E-18 -3.325413E-01  0.000000E+00
  6.377220E-01  5.471080E-02  5.000000E-01  6.441623E-01  5.520768E-02  0.000000E+00  1.004595E-02 -1.170516E-03  1.590632E-18 -3.504430E-01  0.000000E+00
  6.180260E-01  5.701577E-02  5.000000E-01  6.242673E-01  5.753593E-02  0.000000E+00  1.020368E-02 -1.192873E-03  1.273251E-18 -3.723381E-01  0.000000E+00
  5.979670E-01  5.935768E-02  5.000000E-01  6.040058E-01  5.990149E-02  0.000000E+00  1.046275E-02 -1.212314E-03  1.170193E-18 -3.982458E-01  0.000000E+00
  5.775910E-01  6.170028E-02  5.000000E-01  5.834240E-01  6.226775E-02  0.000000E+00  1.081833E-02 -1.224099E-03  3.858237E-19 -4.270073E-01  0.000000E+00
  5.569470E-01  6.400048E-02  5.000000E-01  5.625715E-01  6.459117E-02  0.000000E+00  1.124641E-02 -1.220854E-03  3.718905E-20 -4.559081E-01  0.000000E+00
  5.360860E-01  6.620849E-02  5.000000E-01  5.414998E-01  6.682148E-02  0.000000E+00  1.170576E-02 -1.200196E-03 -1.104877E-20 -4.834765E-01  0.000000E+00
  5.150640E-01  6.829672E-02  5.000000E-01  5.202655E-01  6.893080E-02  0.000000E+00  1.215948E-02 -1.166675E-03 -6.487502E-19 -5.103253E-01  0.000000E+00
  4.939370E-01  7.025469E-02  5.000000E-01  4.989252E-01  7.090854E-02  0.000000E+00  1.259155E-02 -1.123508E-03  4.988379E-19 -5.368651E-01  0.000000E+00
  4.727610E-01  7.207366E-02  5.000000E-01  4.775353E-01  7.274589E-02  0.000000E+00  1.300298E-02 -1.071642E-03  1.813368E-18 -5.635139E-01  0.000000E+00
  5.770140E-06 -5.689354E-05  5.000000E-01  5.829536E-06 -1.131020E-04  0.000000E+00  4.306100E-03 -2.547192E-02 -5.132751E-13  9.011512E-01  0.000000E+00
  9.104010E-05 -3.871692E-04  5.000000E-01  9.196062E-05 -4.467130E-04  0.000000E+00  2.105024E-02 -3.741028E-02 -4.441292E-13  8.961009E-01  0.000000E+00
  4.796980E-04 -8.958671E-04  5.000000E-01  4.845435E-04 -9.605482E-04  0.000000E+00  3.940162E-02 -3.529413E-02 -2.958947E-13  5.746265E-01  0.000000E+00
  1.456590E-03 -1.479678E-03  5.000000E-01  1.471301E-03 -1.550255E-03  0.000000E+00  4.192456E-02 -2.033169E-02 -1.426599E-13  2.473161E-01  0.000000E+00
  3.096410E-03 -2.038631E-03  5.000000E-01  3.127681E-03 -2.114852E-03  0.000000E+00  3.395021E-02 -9.946420E-03 -4.366651E-14  1.425856E-01  0.000000E+00
  5.335170E-03 -2.551536E-03  5.000000E-01  5.389050E-03 -2.632937E-03  0.000000E+00  2.700159E-02 -5.388347E-03 -1.852891E-15  1.318150E-01  0.000000E+00
  8.129670E-03 -3.012915E-03  5.000000E-01  8.211771E-03 -3.098976E-03  0.000000E+00  2.284488E-02 -3.267961E-03  7.199353E-15  1.134837E-01  0.000000E+00
  1.145600E-02 -3.405261E-03  5.000000E-01  1.157169E-02 -3.495284E-03  0.000000E+00  1.972382E-02 -1.858677E-03  4.994131E-15  7.948775E-02  0.000000E+00
  1.529970E-02 -3.662211E-03  5.000000E-01  1.545421E-02 -3.754829E-03  0.000000E+00  1.637457E-02 -6.595666E-04  1.842307E-15  4.263800E-02  0.000000E+00
  1.962420E-02 -3.691708E-03  5.000000E-01  1.982238E-02 -3.784624E-03  0.000000E+00  1.287299E-02  1.383957E-04  2.696723E-16  3.586213E-02  0.000000E+00
  2.439810E-02 -3.516577E-03  5.000000E-01  2.464449E-02 -3.607724E-03  0.000000E+00  1.051749E-02  3.775676E-04 -1.374767E-16  9.004147E-02  0.000000E+00
  2.966100E-02 -3.329283E-03  5.000000E-01  2.996054E-02 -3.418539E-03  0.000000E+00  1.011834E-02  3.113108E-04 -1.194118E-16  1.563712E-01  0.000000E+00
  3.543640E-02 -3.194426E-03  5.000000E-01  3.579427E-02 -3.282320E-03  0.000000E+00  1.088713E-02  2.154270E-04 -4.467922E-17  1.751667E-01  0.000000E+00
  4.172970E-02 -3.093699E-03  5.000000E-01  4.215112E-02 -3.180575E-03  0.000000E+00  1.167356E-02  1.803140E-04 -5.825326E-18  1.616147E-01  0.000000E+00
  4.854440E-02 -2.989227E-03  5.000000E-01  4.903464E-02 -3.075049E-03  0.000000E+00  1.201728E-02  2.230243E-04  3.759697E-18  1.429676E-01  0.000000E+00
  5.588220E-02 -2.827744E-03  5.000000E-01  5.644655E-02 -2.911935E-03  0.000000E+00  1.198412E-02  3.085247E-04  3.561690E-18  1.309519E-01  0.000000E+00
  6.375220E-02 -2.593436E-03  5.000000E-01  6.439602E-02 -2.675261E-03  0.000000E+00  1.181022E-02  3.811325E-04  1.764593E-18  1.287083E-01  0.000000E+00
  7.217040E-02 -2.299791E-03  5.000000E-01  7.289924E-02 -2.378650E-03  0.000000E+00  1.168457E-02  4.193932E-04 -1.598715E-19  1.316813E-01  0.000000E+00
  8.115500E-02 -1.968971E-03  5.000000E-01  8.197457E-02 -2.044490E-03  0.000000E+00  1.165944E-02  4.372097E-04 -7.783572E-19  1.332938E-01  0.000000E+00
  9.072040E-02 -1.605184E-03  5.000000E-01  9.163657E-02 -1.677029E-03  0.000000E+00  1.168695E-02  4.564241E-04 -5.990471E-19  1.303904E-01  0.000000E+00
  1.008780E-01 -1.198255E-03  5.000000E-01  1.018968E-01 -1.265990E-03  0.000000E+00  1.170972E-02  4.856054E-04 -1.630650E-19  1.249931E-01  0.000000E+00
  1.116380E-01 -7.363887E-04  5.000000E-01  1.127654E-01 -7.994592E-04  0.000000E+00  1.170028E-02  5.257054E-04  5.184663E-19  1.194800E-01  0.000000E+00
  1.230100E-01 -2.024921E-04  5.000000E-01  1.242523E-01 -2.601709E-04  0.000000E+00  1.164191E-02  5.774227E-04  1.505905E-18  1.145029E-01  0.000000E+00
  1.350030E-01  4.242803E-04  5.000000E-01  1.363664E-01  3.729311E-04  0.000000E+00  1.151324E-02  6.401321E-04  1.597741E-18  1.105944E-01  0.000000E+00
  1.350030E-01  4.242803E-04  5.000000E-01  1.363664E-01  3.729311E-04  0.000000E+00  1.151324E-02  6.401321E-04  1.597741E-18  1.105944E-01  0.000000E+00
  1.476220E-01  1.168587E-03  5.000000E-01  1.491128E-01  1.124754E-03  0.000000E+00  1.129221E-02  7.114677E-04 -2.881213E-20  1.086781E-01  0.000000E+00
  1.608730E-01  2.058137E-03  5.000000E-01  1.624976E-01  2.023288E-03  0.000000E+00  1.096585E-02  7.870635E-04 -3.390761E-19  1.099453E-01  0.000000E+00
  1.747560E-01  3.121488E-03  5.000000E-01  1.765208E-01  3.097378E-03  0.000000E+00  1.053833E-02  8.595754E-04  1.179044E-18  1.154775E-01  0.000000E+00
  1.892730E-01  4.380871E-03  5.000000E-01  1.911844E-01  4.369478E-03  0.000000E+00  1.003490E-02  9.165991E-04  1.024728E-18  1.259766E-01  0.000000E+00
  2.044180E-01  5.838729E-03  5.000000E-01  2.064824E-01  5.842060E-03  0.000000E+00  9.508309E-03  9.415023E-04 -8.529054E-19  1.428343E-01  0.000000E+00
  2.201880E-01  7.447860E-03  5.000000E-01  2.224116E-01  7.467441E-03  0.000000E+00  9.017269E-03  9.304013E-04 -1.399627E-19  1.646173E-01  0.000000E+00
  2.365750E-01  9.156942E-03  5.000000E-01  2.389641E-01  9.193783E-03  0.000000E+00  8.586252E-03  8.961743E-04  2.149364E-18  1.864030E-01  0.000000E+00
  2.535710E-01  1.093066E-02  5.000000E-01  2.561318E-01  1.098541E-02  0.000000E+00  8.212736E-03  8.492627E-04  2.163322E-18  2.061550E-01  0.000000E+00
  2.711570E-01  1.273190E-02  5.000000E-01  2.738954E-01  1.280484E-02  0.000000E+00  7.900829E-03  7.923995E-04  2.087065E-18  2.247248E-01  0.000000E+00
  2.893100E-01  1.451322E-02  5.000000E-01  2.922317E-01  1.460416E-02  0.000000E+00  7.668934E-03  7.252403E-04  2.871416E-18  2.424938E-01  0.000000E+00
  3.080020E-01  1.621275E-02  5.000000E-01  3.111125E-01  1.632084E-02  0.000000E+00  7.534118E-03  6.474582E-04  1.305943E-18  2.584252E-01  0.000000E+00
  3.271950E-01  1.776571E-02  5.000000E-01  3.304993E-01  1.788949E-02  0.000000E+00  7.499437E-03  5.604932E-04 -1.332494E-18  2.713491E-01  0.000000E+00
  3.468470E-01  1.911261E-02  5.000000E-01  3.503498E-01  1.924999E-02  0.000000E+00  7.544964E-03  4.721754E-04 -1.860413E-18  2.794492E-01  0.000000E+00
  3.669110E-01  2.024789E-02  5.000000E-01  3.706164E-01  2.039674E-02  0.000000E+00  7.630836E-03  3.921732E-04 -7.006148E-19  2.819293E-01  0.000000E+00
  3.873360E-01  2.119277E-02  5.000000E-01  3.912476E-01  2.135116E-02  0.000000E+00  7.720672E-03  3.233164E-04  1.714370E-18  2.810428E-01  0.000000E+00
  4.080670E-01  2.197198E-02  5.000000E-01  4.121880E-01  2.213824E-02  0.000000E+00  7.795517E-03  2.645328E-04  2.580760E-18  2.790989E-01  0.000000E+00
  4.290470E-01  2.260810E-02  5.000000E-01  4.333799E-01  2.278078E-02  0.000000E+00  7.847908E-03  2.148009E-04  1.780421E-19  2.767981E-01  0.000000E+00
  4.502140E-01  2.312506E-02  5.000000E-01  4.547606E-01  2.330296E-02  0.000000E+00  7.876440E-03  1.717934E-04 -6.311414E-19  2.744802E-01  0.000000E+00
  4.715070E-01  2.353447E-02  5.000000E-01  4.762687E-01  2.371651E-02  0.000000E+00  7.887597E-03  1.310833E-04  1.563182E-18  2.728417E-01  0.000000E+00
  4.928620E-01  2.383400E-02  5.000000E-01  4.978393E-01  2.401906E-02  0.000000E+00  7.892711E-03  8.974579E-05  2.120901E-18  2.717745E-01  0.000000E+00
  5.142140E-01  2.401991E-02  5.000000E-01  5.194070E-01  2.420685E-02  0.000000E+00  7.901857E-03  4.683479E-05  3.447813E-20  2.706565E-01  0.000000E+00
  5.355000E-01  2.408691E-02  5.000000E-01  5.409079E-01  2.427452E-02  0.000000E+00  7.922552E-03  1.961771E-06 -8.617845E-19  2.691501E-01  0.000000E+00
  5.566560E-01  2.403100E-02  5.000000E-01  5.622776E-01  2.421805E-02  0.000000E+00  7.960187E-03 -4.447428E-05 -1.593335E-18  2.670220E-01  0.000000E+00
  4.727610E-01  7.207366E-02  5.000000E-01  4.775353E-01  7.274589E-02  0.000000E+00  1.300298E-02 -1.071642E-03  1.813368E-18 -5.635139E-01  0.000000E+00
  4.515970E-01  7.374615E-02  5.000000E-01  4.561576E-01  7.443527E-02  0.000000E+00  1.340697E-02 -1.012072E-03  5.469589E-19 -5.912997E-01  0.000000E+00
  4.305020E-01  7.526582E-02  5.000000E-01  4.348496E-01  7.597028E-02  0.000000E+00  1.382489E-02 -9.433303E-04 -3.318483E-19 -6.208862E-01  0.000000E+00
  4.095340E-01  7.661906E-02  5.000000E-01  4.136698E-01  7.733719E-02  0.000000E+00  1.427660E-02 -8.606326E-04 -4.063846E-19 -6.523397E-01  0.000000E+00
  3.887520E-01  7.778579E-02  5.000000E-01  3.926779E-01  7.851570E-02  0.000000E+00  1.477367E-02 -7.586562E-04  5.528057E-19 -6.856939E-01  0.000000E+00
  3.682080E-01  7.874495E-02  5.000000E-01  3.719265E-01  7.948455E-02  0.000000E+00  1.531754E-02 -6.314725E-04  1.252080E-18 -7.200456E-01  0.000000E+00
  3.479570E-01  7.947320E-02  5.000000E-01  3.514710E-01  8.022015E-02  0.000000E+00  1.589221E-02 -4.726699E-04  3.012000E-19 -7.526243E-01  0.000000E+00
  3.280470E-01  7.994719E-02  5.000000E-01  3.313599E-01  8.069893E-02  0.000000E+00  1.645860E-02 -2.831792E-04  4.272775E-20 -7.810414E-01  0.000000E+00
  3.085240E-01  8.015884E-02  5.000000E-01  3.116397E-01  8.091271E-02  0.000000E+00  1.697457E-02 -7.824626E-05  3.228570E-19 -8.067619E-01  0.000000E+00
  2.894320E-01  8.013107E-02  5.000000E-01  2.923549E-01  8.088466E-02  0.000000E+00  1.743151E-02  1.295655E-04  4.142723E-19 -8.328430E-01  0.000000E+00
  2.708110E-01  7.988442E-02  5.000000E-01  2.735459E-01  8.063553E-02  0.000000E+00  1.786200E-02  3.431801E-04 -4.973643E-19 -8.623226E-01  0.000000E+00
  2.526960E-01  7.942968E-02  5.000000E-01  2.552479E-01  8.017619E-02  0.000000E+00  1.833272E-02  5.743748E-04 -2.860130E-18 -9.000027E-01  0.000000E+00
  2.351200E-01  7.877046E-02  5.000000E-01  2.374944E-01  7.951032E-02  0.000000E+00  1.893696E-02  8.546313E-04 -4.100978E-18 -9.473545E-01  0.000000E+00
  2.181120E-01  7.787768E-02  5.000000E-01  2.203147E-01  7.860852E-02  0.000000E+00  1.974153E-02  1.235280E-03 -4.631933E-18 -9.989260E-01  0.000000E+00
  2.017010E-01  7.669310E-02  5.000000E-01  2.037379E-01  7.741198E-02  0.000000E+00  2.073277E-02  1.751085E-03 -4.810776E-18 -1.049059E+00  0.000000E+00
  1.859190E-01  7.517560E-02  5.000000E-01  1.877966E-01  7.587915E-02  0.000000E+00  2.184029E-02  2.413104E-03 -3.376649E-18 -1.093903E+00  0.000000E+00
  1.707920E-01  7.329827E-02  5.000000E-01  1.725168E-01  7.398287E-02  0.000000E+00  2.297571E-02  3.226947E-03 -1.851725E-18 -1.127901E+00  0.000000E+00
  1.563470E-01  7.104505E-02  5.000000E-01  1.579259E-01  7.170689E-02  0.000000E+00  2.403594E-02  4.185642E-03 -2.281646E-18 -1.144774E+00  0.000000E+00
  1.426070E-01  6.841381E-02  5.000000E-01  1.440472E-01  6.904908E-02  0.000000E+00  2.491104E-02  5.255415E-03 -3.007402E-18 -1.139951E+00  0.000000E+00
  1.295900E-01  6.542255E-02  5.000000E-01  1.308987E-01  6.602760E-02  0.000000E+00  2.550884E-02  6.376030E-03 -4.026330E-18 -1.112081E+00  0.000000E+00
  1.173060E-01  6.210939E-02  5.000000E-01  1.184907E-01  6.268099E-02  0.000000E+00  2.578006E-02  7.481180E-03 -3.500412E-18 -1.062110E+00  0.000000E+00
  1.057600E-01  5.852407E-02  5.000000E-01  1.068281E-01  5.905946E-02  0.000000E+00  2.572197E-02  8.514953E-03 -1.318690E-18 -9.923209E-01  0.000000E+00
  9.495290E-02  5.472348E-02  5.000000E-01  9.591182E-02  5.522049E-02  0.000000E+00  2.537005E-02  9.434327E-03  5.488883E-19 -9.065229E-01  0.000000E+00
  8.487680E-02  5.076946E-02  5.000000E-01  8.573396E-02  5.122654E-02  0.000000E+00  2.478558E-02  1.021566E-02  4.909485E-18 -8.081686E-01  0.000000E+00
  8.487680E-02  5.076946E-02  5.000000E-01  8.573396E-02  5.122654E-02  0.000000E+00  2.478558E-02  1.021566E-02  4.909485E-18 -8.081686E-01  0.000000E+00
  7.552090E-02  4.672437E-02  5.000000E-01  7.628357E-02  4.714060E-02  0.000000E+00  2.402327E-02  1.084764E-02  1.070466E-17 -6.985923E-01  0.000000E+00
  6.687020E-02  4.264760E-02  5.000000E-01  6.754551E-02  4.302266E-02  0.000000E+00  2.311077E-02  1.130062E-02  1.306166E-17 -5.806096E-01  0.000000E+00
  5.889940E-02  3.860362E-02  5.000000E-01  5.949422E-02  3.893783E-02  0.000000E+00  2.208456E-02  1.154012E-02  1.013679E-17 -4.613698E-01  0.000000E+00
  5.157140E-02  3.465772E-02  5.000000E-01  5.209221E-02  3.495209E-02  0.000000E+00  2.103592E-02  1.159144E-02  4.961090E-18 -3.490848E-01  0.000000E+00
  4.484650E-02  3.086334E-02  5.000000E-01  4.529940E-02  3.111939E-02  0.000000E+00  2.010178E-02  1.157127E-02  3.531554E-18 -2.479593E-01  0.000000E+00
  3.869820E-02  2.725117E-02  5.000000E-01  3.908901E-02  2.747074E-02  0.000000E+00  1.941206E-02  1.164073E-02 -6.699583E-19 -1.569906E-01  0.000000E+00
  3.311550E-02  2.383312E-02  5.000000E-01  3.344993E-02  2.401817E-02  0.000000E+00  1.902491E-02  1.191503E-02 -1.737283E-17 -7.099137E-02  0.000000E+00
  2.809130E-02  2.061669E-02  5.000000E-01  2.837499E-02  2.076926E-02  0.000000E+00  1.879618E-02  1.235740E-02 -4.560233E-17  2.522167E-02  0.000000E+00
  2.362330E-02  1.760587E-02  5.000000E-01  2.386187E-02  1.772804E-02  0.000000E+00  1.833952E-02  1.261905E-02 -9.424384E-17  1.416460E-01  0.000000E+00
  1.966610E-02  1.482497E-02  5.000000E-01  1.986471E-02  1.491905E-02  0.000000E+00  1.744645E-02  1.222345E-02 -1.570660E-16  2.526634E-01  0.000000E+00
  1.609460E-02  1.232783E-02  5.000000E-01  1.625714E-02  1.239669E-02  0.000000E+00  1.643635E-02  1.126735E-02 -1.046273E-16  3.314502E-01  0.000000E+00
  1.282740E-02  1.013405E-02  5.000000E-01  1.295694E-02  1.018076E-02  0.000000E+00  1.587789E-02  1.044568E-02  4.806175E-16  3.808317E-01  0.000000E+00
  9.860990E-03  8.224091E-03  5.000000E-01  9.960576E-03  8.251510E-03  0.000000E+00  1.616586E-02  1.038853E-02  2.291064E-15  4.187760E-01  0.000000E+00
  7.251350E-03  6.551792E-03  5.000000E-01  7.324581E-03  6.562324E-03  0.000000E+00  1.737320E-02  1.134260E-02  5.409279E-15  4.596634E-01  0.000000E+00
  5.038810E-03  5.083624E-03  5.000000E-01  5.089697E-03  5.079329E-03  0.000000E+00  1.938242E-02  1.336508E-02  6.656890E-15  5.060736E-01  0.000000E+00
  3.239710E-03  3.802492E-03  5.000000E-01  3.272428E-03  3.785258E-03  0.000000E+00  2.182083E-02  1.657622E-02 -4.596255E-15  5.646930E-01  0.000000E+00
  1.861880E-03  2.699099E-03  5.000000E-01  1.880684E-03  2.670723E-03  0.000000E+00  2.337661E-02  2.070634E-02 -4.830839E-14  6.521394E-01  0.000000E+00
  9.013910E-04  1.772389E-03  5.000000E-01  9.104951E-04  1.734654E-03  0.000000E+00  2.101636E-02  2.339116E-02 -1.449854E-13  7.889832E-01  0.000000E+00
  3.295630E-04  1.030695E-03  5.000000E-01  3.328923E-04  9.854698E-04  0.000000E+00  1.208780E-02  1.777499E-02 -2.916447E-13  9.561107E-01  0.000000E+00
  7.194000E-05  4.894351E-04  5.000000E-01  7.266763E-05  4.387439E-04  0.000000E+00  1.345403E-03 -2.767952E-03 -4.381873E-13  1.030270E+00  0.000000E+00
  4.516100E-06  1.633912E-04  5.000000E-01  4.562831E-06  1.094074E-04  0.000000E+00 -2.783331E-03 -2.568111E-02 -5.121503E-13  9.223187E-01  0.000000E+00
 -1.112850E-09  5.507765E-05  5.000000E-01  0.000000E+00  0.000000E+00  0.000000E+00 -1.316813E-03 -2.666905E-02 -5.217585E-13  8.190220E-01  0.000000E+00