 Title = "ADflow Slice Data"
Variables =  "CoordinateX"  "CoordinateY"  "CoordinateZ"  "XoC"  "YoC"  "ZoC" "VelocityX" "VelocityY" "VelocityZ" "CoefPressure" "Mach" 
Zone T= "Slice_0001 None Absolute Regular z = 0.50000000"
 Nodes =          192  Elements=          184  ZONETYPE=FELINESEG
 DATAPACKING=POINT
  5.566560E-01  2.603043E-02  5.000000E-01  5.622776E-01  2.624464E-02  0.000000E+00  7.757152E-03 -7.653885E-05  2.521882E-19  2.835769E-01  0.000000E+00
  5.776220E-01  2.575924E-02  5.000000E-01  5.834553E-01  2.597071E-02  0.000000E+00  7.799357E-03 -1.282575E-04  1.094039E-18  2.809744E-01  0.000000E+00
  5.983370E-01  2.534685E-02  5.000000E-01  6.043795E-01  2.555416E-02  0.000000E+00  7.879691E-03 -1.869506E-04  5.498630E-19  2.780939E-01  0.000000E+00
  6.187480E-01  2.478516E-02  5.000000E-01  6.249967E-01  2.498680E-02  0.000000E+00  8.010411E-03 -2.528208E-04  9.227720E-21  2.736836E-01  0.000000E+00
  6.388030E-01  2.407225E-02  5.000000E-01  6.452542E-01  2.426669E-02  0.000000E+00  8.192158E-03 -3.256398E-04  2.859499E-19  2.672600E-01  0.000000E+00
  6.584530E-01  2.321148E-02  5.000000E-01  6.651026E-01  2.339722E-02  0.000000E+00  8.414005E-03 -4.012374E-04  2.583857E-19  2.590139E-01  0.000000E+00
  6.776550E-01  2.222240E-02  5.000000E-01  6.844985E-01  2.239815E-02  0.000000E+00  8.643035E-03 -4.627648E-04  2.116507E-19  2.476052E-01  0.000000E+00
  6.963720E-01  2.118131E-02  5.000000E-01  7.034046E-01  2.134655E-02  0.000000E+00  8.827616E-03 -4.933730E-04  5.623507E-19  2.332998E-01  0.000000E+00
  7.145680E-01  2.016016E-02  5.000000E-01  7.217843E-01  2.031509E-02  0.000000E+00  8.927985E-03 -4.926587E-04  1.037312E-19  2.198683E-01  0.000000E+00
  7.322140E-01  1.920400E-02  5.000000E-01  7.396085E-01  1.934927E-02  0.000000E+00  8.932711E-03 -4.697070E-04 -7.240080E-19  2.099859E-01  0.000000E+00
  7.492860E-01  1.833442E-02  5.000000E-01  7.568529E-01  1.847090E-02  0.000000E+00  8.851665E-03 -4.347405E-04 -3.553742E-19  2.041860E-01  0.000000E+00
  7.657630E-01  1.755558E-02  5.000000E-01  7.734963E-01  1.768420E-02  0.000000E+00  8.706266E-03 -3.964812E-04 -3.352347E-19  2.018179E-01  0.000000E+00
  7.816300E-01  1.686043E-02  5.000000E-01  7.895236E-01  1.698203E-02  0.000000E+00  8.527994E-03 -3.662568E-04 -8.950949E-19  2.023210E-01  0.000000E+00
  7.968740E-01  1.622048E-02  5.000000E-01  8.049215E-01  1.633562E-02  0.000000E+00  8.365579E-03 -3.605492E-04 -2.368819E-19  2.063147E-01  0.000000E+00
  8.114890E-01  1.557483E-02  5.000000E-01  8.196841E-01  1.568345E-02  0.000000E+00  8.267338E-03 -3.847407E-04  9.706251E-19  2.117929E-01  0.000000E+00
  8.254710E-01  1.488945E-02  5.000000E-01  8.338073E-01  1.499115E-02  0.000000E+00  8.247171E-03 -4.285181E-04  1.221099E-18  2.148378E-01  0.000000E+00
  8.388180E-01  1.415589E-02  5.000000E-01  8.472891E-01  1.425018E-02  0.000000E+00  8.288111E-03 -4.808240E-04  3.556023E-19  2.145703E-01  0.000000E+00
  8.515320E-01  1.337983E-02  5.000000E-01  8.601315E-01  1.346628E-02  0.000000E+00  8.368532E-03 -5.349802E-04 -3.215864E-19  2.120198E-01  0.000000E+00
  8.636180E-01  1.257288E-02  5.000000E-01  8.723396E-01  1.265118E-02  0.000000E+00  8.473744E-03 -5.877938E-04 -1.158280E-19  2.080958E-01  0.000000E+00
  8.750810E-01  1.174836E-02  5.000000E-01  8.839183E-01  1.181834E-02  0.000000E+00  8.594187E-03 -6.378897E-04  1.518228E-20  2.032070E-01  0.000000E+00
  8.859290E-01  1.091864E-02  5.000000E-01  8.948759E-01  1.098024E-02  0.000000E+00  8.723009E-03 -6.848309E-04  4.670201E-20  1.976329E-01  0.000000E+00
  8.961710E-01  1.009415E-02  5.000000E-01  9.052213E-01  1.014742E-02  0.000000E+00  8.855701E-03 -7.285572E-04  2.781061E-19  1.916060E-01  0.000000E+00
  9.058170E-01  9.283776E-03  5.000000E-01  9.149647E-01  9.328864E-03  0.000000E+00  8.989661E-03 -7.691457E-04  2.542670E-19  1.852872E-01  0.000000E+00
  9.148770E-01  8.494782E-03  5.000000E-01  9.241162E-01  8.531901E-03  0.000000E+00  9.123294E-03 -8.066546E-04 -1.617069E-19  1.787689E-01  0.000000E+00
  9.148770E-01  8.494782E-03  5.000000E-01  9.241162E-01  8.531901E-03  0.000000E+00  9.123294E-03 -8.066546E-04 -1.617069E-19  1.787689E-01  0.000000E+00
  9.233640E-01  7.733240E-03  5.000000E-01  9.326889E-01  7.762669E-03  0.000000E+00  9.255731E-03 -8.413160E-04 -6.303291E-19  1.721545E-01  0.000000E+00
  9.312880E-01  7.003864E-03  5.000000E-01  9.406930E-01  7.025927E-03  0.000000E+00  9.386893E-03 -8.734780E-04 -1.498552E-18  1.655339E-01  0.000000E+00
  9.386620E-01  6.310369E-03  5.000000E-01  9.481414E-01  6.325428E-03  0.000000E+00  9.517044E-03 -9.034433E-04 -9.553297E-19  1.589472E-01  0.000000E+00
  9.454960E-01  5.655653E-03  5.000000E-01  9.550444E-01  5.664100E-03  0.000000E+00  9.646240E-03 -9.313901E-04  1.752055E-19  1.524076E-01  0.000000E+00
  9.518040E-01  5.041900E-03  5.000000E-01  9.614161E-01  5.044149E-03  0.000000E+00  9.774774E-03 -9.575925E-04 -4.233419E-19  1.459600E-01  0.000000E+00
  9.575950E-01  4.470757E-03  5.000000E-01  9.672656E-01  4.467238E-03  0.000000E+00  9.904017E-03 -9.824250E-04 -7.100086E-19  1.396338E-01  0.000000E+00
  9.628810E-01  3.943432E-03  5.000000E-01  9.726050E-01  3.934588E-03  0.000000E+00  1.003711E-02 -1.006343E-03 -6.628972E-19  1.334322E-01  0.000000E+00
  9.676710E-01  3.460783E-03  5.000000E-01  9.774434E-01  3.447065E-03  0.000000E+00  1.017998E-02 -1.030114E-03 -9.573642E-19  1.273817E-01  0.000000E+00
  9.719750E-01  3.023424E-03  5.000000E-01  9.817908E-01  3.005289E-03  0.000000E+00  1.034046E-02 -1.054587E-03 -1.630865E-18  1.215048E-01  0.000000E+00
  9.758020E-01  2.631732E-03  5.000000E-01  9.856565E-01  2.609641E-03  0.000000E+00  1.052111E-02 -1.080135E-03 -2.298610E-18  1.158380E-01  0.000000E+00
  9.791590E-01  2.285968E-03  5.000000E-01  9.890474E-01  2.260386E-03  0.000000E+00  1.069990E-02 -1.104761E-03 -1.641940E-18  1.102749E-01  0.000000E+00
  9.820540E-01  1.986267E-03  5.000000E-01  9.919716E-01  1.957658E-03  0.000000E+00  1.081236E-02 -1.122753E-03  6.611507E-18  1.051605E-01  0.000000E+00
  9.844930E-01  1.732706E-03  5.000000E-01  9.944353E-01  1.701536E-03  0.000000E+00  1.074137E-02 -1.118892E-03  3.056607E-17  1.013826E-01  0.000000E+00
  9.864820E-01  1.525285E-03  5.000000E-01  9.964443E-01  1.492020E-03  0.000000E+00  1.019401E-02 -1.053651E-03  5.099274E-17  9.546819E-02  0.000000E+00
  9.880240E-01  1.364008E-03  5.000000E-01  9.980019E-01  1.329115E-03  0.000000E+00  8.701231E-03 -9.182769E-04 -4.272365E-17  8.139632E-02  0.000000E+00
  9.891220E-01  1.248818E-03  5.000000E-01  9.991110E-01  1.212761E-03  0.000000E+00  7.993083E-03 -9.509851E-04 -5.219221E-16  9.707338E-02  0.000000E+00
  9.897810E-01  1.179723E-03  5.000000E-01  9.997767E-01  1.142969E-03  0.000000E+00  1.514122E-02 -4.332329E-04 -1.566405E-15  1.893480E-01  0.000000E+00
  9.900000E-01  1.156699E-03  5.000000E-01  9.999979E-01  1.119712E-03  0.000000E+00  1.272650E-02 -1.410675E-03 -2.030617E-15 -4.269168E-02  0.000000E+00
  9.900000E-01  1.342919E-03  5.000000E-01  9.999979E-01  1.307813E-03  0.000000E+00  1.180217E-03 -1.318224E-02 -1.284429E-15 -1.815360E-01  0.000000E+00
  9.900000E-01  1.529129E-03  5.000000E-01  9.999979E-01  1.495904E-03  0.000000E+00 -7.183209E-04 -1.398576E-02 -3.453002E-16 -6.132516E-03  0.000000E+00
  9.900000E-01  1.715350E-03  5.000000E-01  9.999979E-01  1.684005E-03  0.000000E+00 -4.547061E-04  3.212791E-03  4.343715E-16 -1.474181E-02  0.000000E+00
  9.900000E-01  1.901570E-03  5.000000E-01  9.999979E-01  1.872106E-03  0.000000E+00  7.872224E-04  3.389137E-03  1.576462E-15 -1.349602E-01  0.000000E+00
  9.900000E-01  2.087790E-03  5.000000E-01  9.999979E-01  2.060207E-03  0.000000E+00  7.929599E-03 -4.377019E-03  2.401250E-15 -3.935006E-02  0.000000E+00
  9.900000E-01  2.087790E-03  5.000000E-01  9.999979E-01  2.060207E-03  0.000000E+00  7.929599E-03 -4.377019E-03  2.401250E-15 -3.935006E-02  0.000000E+00
  9.897920E-01  2.128811E-03  5.000000E-01  9.997878E-01  2.101642E-03  0.000000E+00  8.709204E-03 -2.533821E-03  1.717700E-15  1.011553E-01  0.000000E+00
  9.891660E-01  2.251835E-03  5.000000E-01  9.991555E-01  2.225907E-03  0.000000E+00  3.181708E-03 -5.391580E-04  5.587699E-16  3.134084E-02  0.000000E+00
  9.881230E-01  2.456831E-03  5.000000E-01  9.981019E-01  2.432974E-03  0.000000E+00  3.086541E-03 -6.014798E-04  4.764940E-17  1.851582E-02  0.000000E+00
  9.866580E-01  2.743695E-03  5.000000E-01  9.966221E-01  2.722735E-03  0.000000E+00  3.711918E-03 -7.339335E-04 -5.579714E-17  2.492333E-02  0.000000E+00
  9.847700E-01  3.112308E-03  5.000000E-01  9.947151E-01  3.095070E-03  0.000000E+00  3.893252E-03 -7.584226E-04 -3.606977E-17  2.348254E-02  0.000000E+00
  9.824550E-01  3.562504E-03  5.000000E-01  9.923767E-01  3.549813E-03  0.000000E+00  3.946874E-03 -7.646489E-04 -1.179450E-17  1.856099E-02  0.000000E+00
  9.797070E-01  4.094031E-03  5.000000E-01  9.896009E-01  4.086708E-03  0.000000E+00  4.019436E-03 -7.752552E-04 -1.407918E-18  1.308206E-02  0.000000E+00
  9.765220E-01  4.706619E-03  5.000000E-01  9.863838E-01  4.705483E-03  0.000000E+00  4.126881E-03 -7.910638E-04  3.005536E-19  6.723730E-03  0.000000E+00
  9.728930E-01  5.399908E-03  5.000000E-01  9.827181E-01  5.405773E-03  0.000000E+00  4.270387E-03 -8.126314E-04 -7.345925E-19 -6.317017E-04  0.000000E+00
  9.688130E-01  6.173438E-03  5.000000E-01  9.785969E-01  6.187115E-03  0.000000E+00  4.445871E-03 -8.391782E-04 -5.876353E-19 -8.837372E-03  0.000000E+00
  9.642740E-01  7.026678E-03  5.000000E-01  9.740121E-01  7.048971E-03  0.000000E+00  4.645124E-03 -8.689440E-04 -6.713928E-19 -1.774545E-02  0.000000E+00
  9.592670E-01  7.958979E-03  5.000000E-01  9.689545E-01  7.990687E-03  0.000000E+00  4.860642E-03 -9.004227E-04 -1.090277E-18 -2.732141E-02  0.000000E+00
  9.537850E-01  8.969611E-03  5.000000E-01  9.634171E-01  9.011526E-03  0.000000E+00  5.087339E-03 -9.324296E-04 -1.253360E-18 -3.744767E-02  0.000000E+00
  9.478160E-01  1.005760E-02  5.000000E-01  9.573879E-01  1.011050E-02  0.000000E+00  5.321507E-03 -9.641390E-04 -1.249981E-18 -4.805971E-02  0.000000E+00
  9.413520E-01  1.122200E-02  5.000000E-01  9.508586E-01  1.128666E-02  0.000000E+00  5.560765E-03 -9.950271E-04 -1.374331E-18 -5.909787E-02  0.000000E+00
  9.343800E-01  1.246161E-02  5.000000E-01  9.438162E-01  1.253879E-02  0.000000E+00  5.803200E-03 -1.024661E-03 -1.220054E-18 -7.047271E-02  0.000000E+00
  9.268920E-01  1.377494E-02  5.000000E-01  9.362526E-01  1.386539E-02  0.000000E+00  6.047103E-03 -1.052697E-03 -8.306192E-19 -8.214074E-02  0.000000E+00
  9.188750E-01  1.516055E-02  5.000000E-01  9.281546E-01  1.526498E-02  0.000000E+00  6.290952E-03 -1.078789E-03 -5.667911E-19 -9.401621E-02  0.000000E+00
  9.103190E-01  1.661664E-02  5.000000E-01  9.195122E-01  1.673578E-02  0.000000E+00  6.533180E-03 -1.102682E-03 -2.251344E-19 -1.060542E-01  0.000000E+00
  9.012130E-01  1.814130E-02  5.000000E-01  9.103142E-01  1.827584E-02  0.000000E+00  6.772268E-03 -1.124054E-03 -8.087210E-20 -1.181689E-01  0.000000E+00
  8.915460E-01  1.973223E-02  5.000000E-01  9.005496E-01  1.988284E-02  0.000000E+00  7.006557E-03 -1.142679E-03  1.126302E-18 -1.303147E-01  0.000000E+00
  8.813080E-01  2.138717E-02  5.000000E-01  8.902082E-01  2.155449E-02  0.000000E+00  7.234361E-03 -1.158377E-03  1.868628E-18 -1.424181E-01  0.000000E+00
  8.704900E-01  2.310341E-02  5.000000E-01  8.792810E-01  2.328806E-02  0.000000E+00  7.453415E-03 -1.170942E-03  1.202525E-18 -1.543615E-01  0.000000E+00
  8.704900E-01  2.310341E-02  5.000000E-01  8.792810E-01  2.328806E-02  0.000000E+00  7.453415E-03 -1.170942E-03  1.202525E-18 -1.543615E-01  0.000000E+00
  8.590830E-01  2.487835E-02  5.000000E-01  8.677588E-01  2.508092E-02  0.000000E+00  7.661193E-03 -1.180482E-03  8.947433E-19 -1.661311E-01  0.000000E+00
  8.470810E-01  2.670993E-02  5.000000E-01  8.556356E-01  2.693100E-02  0.000000E+00  7.855993E-03 -1.187338E-03  2.440734E-19 -1.777414E-01  0.000000E+00
  8.344780E-01  2.859663E-02  5.000000E-01  8.429053E-01  2.883675E-02  0.000000E+00  8.036610E-03 -1.191910E-03 -5.090990E-20 -1.891280E-01  0.000000E+00
  8.212700E-01  3.053759E-02  5.000000E-01  8.295639E-01  3.079731E-02  0.000000E+00  8.201605E-03 -1.194848E-03 -1.214348E-18 -2.002329E-01  0.000000E+00
  8.074550E-01  3.253322E-02  5.000000E-01  8.156094E-01  3.281310E-02  0.000000E+00  8.350437E-03 -1.197410E-03 -1.121744E-18 -2.112180E-01  0.000000E+00
  7.930350E-01  3.458599E-02  5.000000E-01  8.010438E-01  3.488660E-02  0.000000E+00  8.486941E-03 -1.201483E-03  1.275151E-20 -2.226987E-01  0.000000E+00
  7.780130E-01  3.670056E-02  5.000000E-01  7.858700E-01  3.702252E-02  0.000000E+00  8.621733E-03 -1.208349E-03 -3.292313E-19 -2.354139E-01  0.000000E+00
  7.623950E-01  3.887974E-02  5.000000E-01  7.700943E-01  3.922372E-02  0.000000E+00  8.767514E-03 -1.216687E-03 -9.388033E-19 -2.493447E-01  0.000000E+00
  7.461930E-01  4.111612E-02  5.000000E-01  7.537287E-01  4.148268E-02  0.000000E+00  8.930533E-03 -1.224143E-03 -7.763264E-19 -2.640757E-01  0.000000E+00
  7.294180E-01  4.339964E-02  5.000000E-01  7.367843E-01  4.378926E-02  0.000000E+00  9.109373E-03 -1.229970E-03 -2.278128E-19 -2.794442E-01  0.000000E+00
  7.120900E-01  4.572058E-02  5.000000E-01  7.192813E-01  4.613364E-02  0.000000E+00  9.298537E-03 -1.234118E-03 -4.873133E-19 -2.951445E-01  0.000000E+00
  6.942280E-01  4.807024E-02  5.000000E-01  7.012389E-01  4.850702E-02  0.000000E+00  9.490850E-03 -1.237139E-03 -6.776833E-19 -3.110371E-01  0.000000E+00
  6.758590E-01  5.044329E-02  5.000000E-01  6.826844E-01  5.090404E-02  0.000000E+00  9.683134E-03 -1.240964E-03 -3.120108E-19 -3.277377E-01  0.000000E+00
  6.570120E-01  5.283918E-02  5.000000E-01  6.636471E-01  5.332413E-02  0.000000E+00  9.882340E-03 -1.247515E-03  7.236056E-19 -3.462630E-01  0.000000E+00
  6.377220E-01  5.525727E-02  5.000000E-01  6.441623E-01  5.576664E-02  0.000000E+00  1.010338E-02 -1.255818E-03  4.104972E-19 -3.669344E-01  0.000000E+00
  6.180260E-01  5.768511E-02  5.000000E-01  6.242674E-01  5.821899E-02  0.000000E+00  1.036029E-02 -1.263263E-03 -8.268903E-19 -3.897425E-01  0.000000E+00
  5.979670E-01  6.010454E-02  5.000000E-01  6.040058E-01  6.066286E-02  0.000000E+00  1.066286E-02 -1.267838E-03 -5.399425E-19 -4.149568E-01  0.000000E+00
  5.775910E-01  6.249281E-02  5.000000E-01  5.834240E-01  6.307524E-02  0.000000E+00  1.101644E-02 -1.266548E-03  9.843116E-19 -4.422626E-01  0.000000E+00
  5.569470E-01  6.482161E-02  5.000000E-01  5.625715E-01  6.542757E-02  0.000000E+00  1.141673E-02 -1.254602E-03  1.279470E-18 -4.703211E-01  0.000000E+00
  5.360860E-01  6.705582E-02  5.000000E-01  5.414999E-01  6.768434E-02  0.000000E+00  1.184746E-02 -1.229360E-03  7.066088E-20 -4.982065E-01  0.000000E+00
  5.150640E-01  6.916949E-02  5.000000E-01  5.202656E-01  6.981936E-02  0.000000E+00  1.229014E-02 -1.191859E-03  6.219282E-19 -5.260684E-01  0.000000E+00
  4.939370E-01  7.114540E-02  5.000000E-01  4.989252E-01  7.181522E-02  0.000000E+00  1.273379E-02 -1.142716E-03  1.545194E-19 -5.539651E-01  0.000000E+00
  4.727610E-01  7.296817E-02  5.000000E-01  4.775354E-01  7.365640E-02  0.000000E+00  1.317400E-02 -1.081511E-03 -1.862183E-18 -5.817948E-01  0.000000E+00
  5.770140E-06 -6.385984E-05  5.000000E-01  5.829536E-06 -1.131729E-04  0.000000E+00  2.785731E-03 -1.566856E-02 -5.667885E-13  9.243152E-01  0.000000E+00
  9.104010E-05 -3.948250E-04  5.000000E-01  9.196063E-05 -4.474804E-04  0.000000E+00  1.753397E-02 -2.981099E-02 -4.907277E-13  9.482438E-01  0.000000E+00
  4.796980E-04 -9.064619E-04  5.000000E-01  4.845435E-04 -9.642843E-04  0.000000E+00  3.562267E-02 -3.165001E-02 -3.280926E-13  6.642220E-01  0.000000E+00
  1.456590E-03 -1.497677E-03  5.000000E-01  1.471301E-03 -1.561470E-03  0.000000E+00  4.001940E-02 -1.957880E-02 -1.591670E-13  3.392386E-01  0.000000E+00
  3.096410E-03 -2.069270E-03  5.000000E-01  3.127681E-03 -2.138835E-03  0.000000E+00  3.373635E-02 -1.012208E-02 -4.919194E-14  2.136409E-01  0.000000E+00
  5.335170E-03 -2.599693E-03  5.000000E-01  5.389050E-03 -2.674615E-03  0.000000E+00  2.747155E-02 -5.695185E-03 -2.269278E-15  1.844341E-01  0.000000E+00
  8.129670E-03 -3.083053E-03  5.000000E-01  8.211772E-03 -3.162856E-03  0.000000E+00  2.347148E-02 -3.540653E-03  8.083394E-15  1.548859E-01  0.000000E+00
  1.145600E-02 -3.501317E-03  5.000000E-01  1.157169E-02 -3.585345E-03  0.000000E+00  2.036852E-02 -2.074480E-03  5.677779E-15  1.135380E-01  0.000000E+00
  1.529970E-02 -3.787277E-03  5.000000E-01  1.545421E-02 -3.874193E-03  0.000000E+00  1.701729E-02 -8.081790E-04  2.119009E-15  7.018785E-02  0.000000E+00
  1.962420E-02 -3.847464E-03  5.000000E-01  1.982238E-02 -3.934987E-03  0.000000E+00  1.348756E-02  5.448598E-05  3.183572E-16  5.678961E-02  0.000000E+00
  2.439810E-02 -3.703525E-03  5.000000E-01  2.464449E-02 -3.789594E-03  0.000000E+00  1.106875E-02  3.275087E-04 -1.548998E-16  1.050458E-01  0.000000E+00
  2.966100E-02 -3.547939E-03  5.000000E-01  2.996054E-02 -3.632437E-03  0.000000E+00  1.059115E-02  2.645581E-04 -1.362572E-16  1.667744E-01  0.000000E+00
  3.543640E-02 -3.444689E-03  5.000000E-01  3.579427E-02 -3.528145E-03  0.000000E+00  1.128979E-02  1.656096E-04 -5.081584E-17  1.818912E-01  0.000000E+00
  4.172970E-02 -3.374166E-03  5.000000E-01  4.215112E-02 -3.456909E-03  0.000000E+00  1.202540E-02  1.331786E-04 -5.212964E-18  1.651491E-01  0.000000E+00
  4.854440E-02 -3.296810E-03  5.000000E-01  4.903464E-02 -3.378772E-03  0.000000E+00  1.233622E-02  1.859279E-04  6.151711E-18  1.435419E-01  0.000000E+00
  5.588220E-02 -3.157313E-03  5.000000E-01  5.644655E-02 -3.237867E-03  0.000000E+00  1.228178E-02  2.861822E-04  4.356840E-18  1.288138E-01  0.000000E+00
  6.375220E-02 -2.937776E-03  5.000000E-01  6.439603E-02 -3.016112E-03  0.000000E+00  1.209322E-02  3.749988E-04  1.541142E-18  1.242488E-01  0.000000E+00
  7.217040E-02 -2.649461E-03  5.000000E-01  7.289924E-02 -2.724885E-03  0.000000E+00  1.195624E-02  4.297428E-04  4.245962E-19  1.253220E-01  0.000000E+00
  8.115500E-02 -2.311979E-03  5.000000E-01  8.197457E-02 -2.383996E-03  0.000000E+00  1.191924E-02  4.648908E-04  2.558532E-19  1.254044E-01  0.000000E+00
  9.072040E-02 -1.926476E-03  5.000000E-01  9.163657E-02 -1.994600E-03  0.000000E+00  1.192908E-02  5.030756E-04  3.856035E-19  1.213324E-01  0.000000E+00
  1.008780E-01 -1.479251E-03  5.000000E-01  1.018968E-01 -1.542858E-03  0.000000E+00  1.192246E-02  5.527993E-04  4.260848E-19  1.152373E-01  0.000000E+00
  1.116380E-01 -9.546354E-04  5.000000E-01  1.127654E-01 -1.012944E-03  0.000000E+00  1.186598E-02  6.142300E-04  3.682597E-20  1.096582E-01  0.000000E+00
  1.230100E-01 -3.314451E-04  5.000000E-01  1.242523E-01 -3.834604E-04  0.000000E+00  1.173754E-02  6.866790E-04  5.326565E-19  1.054132E-01  0.000000E+00
  1.350030E-01  4.151533E-04  5.000000E-01  1.363664E-01  3.706778E-04  0.000000E+00  1.151287E-02  7.673306E-04  1.482774E-18  1.032121E-01  0.000000E+00
  1.350030E-01  4.151533E-04  5.000000E-01  1.363664E-01  3.706778E-04  0.000000E+00  1.151287E-02  7.673306E-04  1.482774E-18  1.032121E-01  0.000000E+00
  1.476220E-01  1.313031E-03  5.000000E-01  1.491128E-01  1.277623E-03  0.000000E+00  1.117274E-02  8.509292E-04  7.503541E-19  1.041600E-01  0.000000E+00
  1.608730E-01  2.391200E-03  5.000000E-01  1.624976E-01  2.366680E-03  0.000000E+00  1.071597E-02  9.300594E-04 -5.015380E-19  1.095604E-01  0.000000E+00
  1.747560E-01  3.675439E-03  5.000000E-01  1.765208E-01  3.663889E-03  0.000000E+00  1.016750E-02  9.948940E-04 -2.204227E-18  1.203556E-01  0.000000E+00
  1.892730E-01  5.177912E-03  5.000000E-01  1.911844E-01  5.181535E-03  0.000000E+00  9.578917E-03  1.031799E-03 -2.266281E-18  1.368542E-01  0.000000E+00
  2.044180E-01  6.879047E-03  5.000000E-01  2.064824E-01  6.899849E-03  0.000000E+00  9.028654E-03  1.026271E-03 -8.551582E-19  1.599809E-01  0.000000E+00
  2.201880E-01  8.695901E-03  5.000000E-01  2.224117E-01  8.735052E-03  0.000000E+00  8.584737E-03  9.825559E-04 -1.156385E-18  1.865847E-01  0.000000E+00
  2.365750E-01  1.055574E-02  5.000000E-01  2.389641E-01  1.061367E-02  0.000000E+00  8.253196E-03  9.222489E-04  3.386236E-19  2.097401E-01  0.000000E+00
  2.535710E-01  1.242187E-02  5.000000E-01  2.561318E-01  1.249865E-02  0.000000E+00  8.000004E-03  8.580058E-04  2.184377E-18  2.278256E-01  0.000000E+00
  2.711570E-01  1.426243E-02  5.000000E-01  2.738954E-01  1.435779E-02  0.000000E+00  7.802144E-03  7.912702E-04  1.021763E-18  2.431834E-01  0.000000E+00
  2.893100E-01  1.604421E-02  5.000000E-01  2.922317E-01  1.615757E-02  0.000000E+00  7.656411E-03  7.213654E-04  4.704112E-20  2.570428E-01  0.000000E+00
  3.080020E-01  1.773056E-02  5.000000E-01  3.111125E-01  1.786095E-02  0.000000E+00  7.561775E-03  6.491121E-04  3.850782E-19  2.688995E-01  0.000000E+00
  3.271950E-01  1.929285E-02  5.000000E-01  3.304993E-01  1.943902E-02  0.000000E+00  7.510419E-03  5.761872E-04  1.259119E-19  2.781825E-01  0.000000E+00
  3.468470E-01  2.070796E-02  5.000000E-01  3.503498E-01  2.086842E-02  0.000000E+00  7.490947E-03  5.044686E-04  9.796497E-20  2.849589E-01  0.000000E+00
  3.669110E-01  2.196518E-02  5.000000E-01  3.706164E-01  2.213833E-02  0.000000E+00  7.492163E-03  4.359309E-04 -5.801317E-19  2.894603E-01  0.000000E+00
  3.873360E-01  2.306218E-02  5.000000E-01  3.912477E-01  2.324641E-02  0.000000E+00  7.506211E-03  3.708324E-04 -1.935456E-18  2.922553E-01  0.000000E+00
  4.080670E-01  2.399754E-02  5.000000E-01  4.121880E-01  2.419122E-02  0.000000E+00  7.530342E-03  3.076708E-04 -1.052924E-18  2.940037E-01  0.000000E+00
  4.290470E-01  2.476594E-02  5.000000E-01  4.333799E-01  2.496738E-02  0.000000E+00  7.564385E-03  2.451796E-04  7.332697E-19  2.949604E-01  0.000000E+00
  4.502140E-01  2.536322E-02  5.000000E-01  4.547607E-01  2.557069E-02  0.000000E+00  7.605816E-03  1.839550E-04  9.696866E-19  2.948950E-01  0.000000E+00
  4.715070E-01  2.579248E-02  5.000000E-01  4.762687E-01  2.600429E-02  0.000000E+00  7.648053E-03  1.256584E-04  4.078835E-19  2.936246E-01  0.000000E+00
  4.928620E-01  2.606394E-02  5.000000E-01  4.978393E-01  2.627849E-02  0.000000E+00  7.684201E-03  7.104891E-05 -1.200209E-19  2.914872E-01  0.000000E+00
  5.142140E-01  2.618794E-02  5.000000E-01  5.194070E-01  2.640374E-02  0.000000E+00  7.711783E-03  1.973704E-05 -1.699821E-18  2.890434E-01  0.000000E+00
  5.355000E-01  2.617350E-02  5.000000E-01  5.409079E-01  2.638915E-02  0.000000E+00  7.733390E-03 -2.875852E-05 -1.722469E-18  2.863927E-01  0.000000E+00
  5.566560E-01  2.603043E-02  5.000000E-01  5.622776E-01  2.624464E-02  0.000000E+00  7.757152E-03 -7.653885E-05  2.521882E-19  2.835769E-01  0.000000E+00
  4.727610E-01  7.296817E-02  5.000000E-01  4.775354E-01  7.365640E-02  0.000000E+00  1.317400E-02 -1.081511E-03 -1.862183E-18 -5.817948E-01  0.000000E+00
  4.515970E-01  7.462403E-02  5.000000E-01  4.561576E-01  7.532898E-02  0.000000E+00  1.361015E-02 -1.008048E-03 -6.171699E-19 -6.095184E-01  0.000000E+00
  4.305020E-01  7.610125E-02  5.000000E-01  4.348496E-01  7.682112E-02  0.000000E+00  1.404389E-02 -9.224823E-04  4.324446E-19 -6.372537E-01  0.000000E+00
  4.095340E-01  7.739016E-02  5.000000E-01  4.136698E-01  7.812305E-02  0.000000E+00  1.447939E-02 -8.253334E-04  2.310980E-19 -6.656197E-01  0.000000E+00
  3.887520E-01  7.848419E-02  5.000000E-01  3.926780E-01  7.922812E-02  0.000000E+00  1.492529E-02 -7.156118E-04  7.177216E-19 -6.952797E-01  0.000000E+00
  3.682080E-01  7.937513E-02  5.000000E-01  3.719265E-01  8.012806E-02  0.000000E+00  1.539144E-02 -5.894389E-04  1.361603E-18 -7.261149E-01  0.000000E+00
  3.479570E-01  8.005105E-02  5.000000E-01  3.514710E-01  8.081081E-02  0.000000E+00  1.588062E-02 -4.418891E-04  1.584825E-18 -7.571158E-01  0.000000E+00
  3.280470E-01  8.049827E-02  5.000000E-01  3.313599E-01  8.126254E-02  0.000000E+00  1.638426E-02 -2.714507E-04  5.223005E-19 -7.874516E-01  0.000000E+00
  3.085240E-01  8.071019E-02  5.000000E-01  3.116397E-01  8.147661E-02  0.000000E+00  1.689032E-02 -8.197234E-05 -5.643717E-19 -8.176157E-01  0.000000E+00
  2.894320E-01  8.069180E-02  5.000000E-01  2.923549E-01  8.145803E-02  0.000000E+00  1.739712E-02  1.247029E-04 -1.148909E-18 -8.486660E-01  0.000000E+00
  2.708110E-01  8.044653E-02  5.000000E-01  2.735459E-01  8.121028E-02  0.000000E+00  1.791973E-02  3.526715E-04 -1.577451E-18 -8.826706E-01  0.000000E+00
  2.526960E-01  7.997437E-02  5.000000E-01  2.552479E-01  8.073335E-02  0.000000E+00  1.849934E-02  6.106603E-04 -1.626094E-18 -9.236755E-01  0.000000E+00
  2.351200E-01  7.927405E-02  5.000000E-01  2.374944E-01  8.002596E-02  0.000000E+00  1.920386E-02  9.265261E-04 -2.136347E-18 -9.722493E-01  0.000000E+00
  2.181120E-01  7.831643E-02  5.000000E-01  2.203147E-01  7.905867E-02  0.000000E+00  2.007583E-02  1.347494E-03 -2.800003E-18 -1.021979E+00  0.000000E+00
  2.017010E-01  7.704635E-02  5.000000E-01  2.037380E-01  7.777576E-02  0.000000E+00  2.108045E-02  1.898887E-03 -1.121989E-18 -1.067539E+00  0.000000E+00
  1.859190E-01  7.543368E-02  5.000000E-01  1.877966E-01  7.614680E-02  0.000000E+00  2.214214E-02  2.579063E-03  2.948637E-19 -1.106986E+00  0.000000E+00
  1.707920E-01  7.346535E-02  5.000000E-01  1.725168E-01  7.415860E-02  0.000000E+00  2.319102E-02  3.389240E-03  3.622651E-19 -1.136297E+00  0.000000E+00
  1.563470E-01  7.113318E-02  5.000000E-01  1.579259E-01  7.180288E-02  0.000000E+00  2.415355E-02  4.327243E-03 -5.213394E-19 -1.149841E+00  0.000000E+00
  1.426070E-01  6.843794E-02  5.000000E-01  1.440472E-01  6.908042E-02  0.000000E+00  2.494500E-02  5.367041E-03 -2.952575E-18 -1.143290E+00  0.000000E+00
  1.295900E-01  6.539737E-02  5.000000E-01  1.308987E-01  6.600914E-02  0.000000E+00  2.548761E-02  6.456315E-03 -5.105277E-18 -1.115148E+00  0.000000E+00
  1.173060E-01  6.204778E-02  5.000000E-01  1.184907E-01  6.262572E-02  0.000000E+00  2.573452E-02  7.534898E-03 -3.051382E-18 -1.065996E+00  0.000000E+00
  1.057600E-01  5.843655E-02  5.000000E-01  1.068281E-01  5.897802E-02  0.000000E+00  2.567706E-02  8.550078E-03 -1.100038E-18 -9.977055E-01  0.000000E+00
  9.495290E-02  5.461825E-02  5.000000E-01  9.591182E-02  5.512116E-02  0.000000E+00  2.534152E-02  9.459211E-03  2.203835E-19 -9.137269E-01  0.000000E+00
  8.487680E-02  5.065273E-02  5.000000E-01  8.573396E-02  5.111560E-02  0.000000E+00  2.478051E-02  1.023715E-02  5.431865E-18 -8.172330E-01  0.000000E+00
  8.487680E-02  5.065273E-02  5.000000E-01  8.573396E-02  5.111560E-02  0.000000E+00  2.478051E-02  1.023715E-02  5.431865E-18 -8.172330E-01  0.000000E+00
  7.552090E-02  4.660076E-02  5.000000E-01  7.628358E-02  4.702270E-02  0.000000E+00  2.404216E-02  1.087016E-02  9.403521E-18 -7.093568E-01  0.000000E+00
  6.687020E-02  4.252052E-02  5.000000E-01  6.754551E-02  4.290126E-02  0.000000E+00  2.314963E-02  1.132576E-02  1.085350E-17 -5.928145E-01  0.000000E+00
  5.889940E-02  3.847568E-02  5.000000E-01  5.949422E-02  3.881557E-02  0.000000E+00  2.213700E-02  1.156686E-02  1.101012E-17 -4.747835E-01  0.000000E+00
  5.157140E-02  3.453111E-02  5.000000E-01  5.209221E-02  3.483117E-02  0.000000E+00  2.109551E-02  1.161737E-02  8.872868E-18 -3.635992E-01  0.000000E+00
  4.484650E-02  3.073998E-02  5.000000E-01  4.529940E-02  3.100175E-02  0.000000E+00  2.016435E-02  1.159442E-02  7.994987E-18 -2.636022E-01  0.000000E+00
  3.869820E-02  2.713271E-02  5.000000E-01  3.908901E-02  2.735805E-02  0.000000E+00  1.947720E-02  1.166118E-02  5.097167E-19 -1.738559E-01  0.000000E+00
  3.311550E-02  2.372089E-02  5.000000E-01  3.344993E-02  2.391178E-02  0.000000E+00  1.909520E-02  1.193477E-02 -2.029370E-17 -8.908217E-02  0.000000E+00
  2.809130E-02  2.051168E-02  5.000000E-01  2.837499E-02  2.067016E-02  0.000000E+00  1.887176E-02  1.237705E-02 -5.027463E-17  6.246206E-03  0.000000E+00
  2.362330E-02  1.750875E-02  5.000000E-01  2.386187E-02  1.763690E-02  0.000000E+00  1.840903E-02  1.263090E-02 -1.037968E-16  1.223801E-01  0.000000E+00
  1.966610E-02  1.473635E-02  5.000000E-01  1.986471E-02  1.483650E-02  0.000000E+00  1.748549E-02  1.220868E-02 -1.679454E-16  2.332157E-01  0.000000E+00
  1.609460E-02  1.224876E-02  5.000000E-01  1.625714E-02  1.232379E-02  0.000000E+00  1.641976E-02  1.120745E-02 -9.380010E-17  3.110972E-01  0.000000E+00
  1.282740E-02  1.006571E-02  5.000000E-01  1.295694E-02  1.011870E-02  0.000000E+00  1.579659E-02  1.033607E-02  5.708836E-16  3.584188E-01  0.000000E+00
  9.860990E-03  8.167219E-03  5.000000E-01  9.960576E-03  8.201031E-03  0.000000E+00  1.603737E-02  1.023986E-02  2.551516E-15  3.932621E-01  0.000000E+00
  7.251350E-03  6.506304E-03  5.000000E-01  7.324582E-03  6.523342E-03  0.000000E+00  1.724384E-02  1.117905E-02  5.846962E-15  4.303119E-01  0.000000E+00
  5.038810E-03  5.048748E-03  5.000000E-01  5.089697E-03  5.051067E-03  0.000000E+00  1.933724E-02  1.323845E-02  6.850308E-15  4.721787E-01  0.000000E+00
  3.239710E-03  3.776954E-03  5.000000E-01  3.272429E-03  3.766428E-03  0.000000E+00  2.202275E-02  1.661760E-02 -6.066456E-15  5.254361E-01  0.000000E+00
  1.861880E-03  2.681198E-03  5.000000E-01  1.880684E-03  2.659607E-03  0.000000E+00  2.411796E-02  2.125360E-02 -5.428080E-14  6.071058E-01  0.000000E+00
  9.013910E-04  1.760098E-03  5.000000E-01  9.104952E-04  1.729204E-03  0.000000E+00  2.265126E-02  2.520677E-02 -1.592759E-13  7.405763E-01  0.000000E+00
  3.295630E-04  1.021862E-03  5.000000E-01  3.328923E-04  9.835133E-04  0.000000E+00  1.458665E-02  2.211942E-02 -3.173894E-13  9.141837E-01  0.000000E+00
  7.194000E-05  4.821660E-04  5.000000E-01  7.266764E-05  4.383672E-04  0.000000E+00  3.763222E-03  5.097099E-03 -4.761111E-13  1.011620E+00  0.000000E+00
  4.516100E-06  1.564931E-04  5.000000E-01  4.562832E-06  1.094054E-04  0.000000E+00 -1.480661E-03 -1.522768E-02 -5.596227E-13  9.335412E-01  0.000000E+00
 -1.112850E-09  4.818157E-05  5.000000E-01  0.000000E+00  0.000000E+00  0.000000E+00 -1.272927E-03 -1.601404E-02 -5.746151E-13  8.413221E-01  0.000000E+00