 Title = "ADflow Slice Data"
Variables =  "CoordinateX"  "CoordinateY"  "CoordinateZ"  "XoC"  "YoC"  "ZoC" "VelocityX" "VelocityY" "VelocityZ" "CoefPressure" "Mach" 
Zone T= "Slice_0001 None Absolute Regular z = 0.50000000"
 Nodes =          192  Elements=          184  ZONETYPE=FELINESEG
 DATAPACKING=POINT
  5.566560E-01  1.879602E-02  5.000000E-01  5.622777E-01  1.879507E-02  0.000000E+00  8.410982E-03 -1.362439E-05  3.958509E-18  1.960014E-01  0.000000E+00
  5.776220E-01  1.894400E-02  5.000000E-01  5.834555E-01  1.894455E-02  0.000000E+00  7.748754E-03  6.674841E-05  3.405585E-18  2.116149E-01  0.000000E+00
  5.983370E-01  1.916558E-02  5.000000E-01  6.043797E-01  1.916837E-02  0.000000E+00  7.287154E-03  4.601644E-05  6.153694E-19  2.412234E-01  0.000000E+00
  6.187480E-01  1.919451E-02  5.000000E-01  6.249968E-01  1.919759E-02  0.000000E+00  7.212976E-03 -6.602318E-05 -4.807823E-19  2.662842E-01  0.000000E+00
  6.388030E-01  1.879727E-02  5.000000E-01  6.452544E-01  1.879634E-02  0.000000E+00  7.593394E-03 -2.785165E-04  6.013492E-19  2.779090E-01  0.000000E+00
  6.584530E-01  1.777682E-02  5.000000E-01  6.651028E-01  1.776558E-02  0.000000E+00  8.415638E-03 -6.047911E-04 -7.951813E-19  2.759595E-01  0.000000E+00
  6.776550E-01  1.605468E-02  5.000000E-01  6.844987E-01  1.602605E-02  0.000000E+00  9.531556E-03 -9.580320E-04 -2.945125E-18  2.498632E-01  0.000000E+00
  6.963720E-01  1.398350E-02  5.000000E-01  7.034048E-01  1.393396E-02  0.000000E+00  1.063613E-02 -1.176105E-03 -1.254169E-18  1.952949E-01  0.000000E+00
  7.145680E-01  1.197313E-02  5.000000E-01  7.217845E-01  1.190328E-02  0.000000E+00  1.141809E-02 -1.168491E-03  1.291676E-18  1.325094E-01  0.000000E+00
  7.322140E-01  1.030871E-02  5.000000E-01  7.396087E-01  1.022205E-02  0.000000E+00  1.168555E-02 -9.483811E-04  2.294224E-18  8.151560E-02  0.000000E+00
  7.492860E-01  9.151583E-03  5.000000E-01  7.568531E-01  9.053238E-03  0.000000E+00  1.138237E-02 -5.941403E-04  1.729906E-18  5.144742E-02  0.000000E+00
  7.657630E-01  8.562695E-03  5.000000E-01  7.734965E-01  8.458403E-03  0.000000E+00  1.057098E-02 -2.072631E-04  3.471568E-19  4.345303E-02  0.000000E+00
  7.816300E-01  8.532978E-03  5.000000E-01  7.895238E-01  8.428386E-03  0.000000E+00  9.431355E-03  1.048444E-04 -7.744440E-20  5.699069E-02  0.000000E+00
  7.968740E-01  8.935748E-03  5.000000E-01  8.049217E-01  8.835224E-03  0.000000E+00  8.271693E-03  2.579561E-04  1.750547E-18  9.450413E-02  0.000000E+00
  8.114890E-01  9.475203E-03  5.000000E-01  8.196843E-01  9.380126E-03  0.000000E+00  7.386907E-03  2.649832E-04  2.710075E-18  1.432501E-01  0.000000E+00
  8.254710E-01  9.951410E-03  5.000000E-01  8.338075E-01  9.861142E-03  0.000000E+00  6.864796E-03  2.012623E-04  1.366871E-18  1.817263E-01  0.000000E+00
  8.388180E-01  1.027052E-02  5.000000E-01  8.472893E-01  1.018348E-02  0.000000E+00  6.624481E-03  1.142788E-04  7.663183E-19  2.051743E-01  0.000000E+00
  8.515320E-01  1.040410E-02  5.000000E-01  8.601317E-01  1.031840E-02  0.000000E+00  6.565708E-03  2.164311E-05  1.448875E-18  2.188279E-01  0.000000E+00
  8.636180E-01  1.035837E-02  5.000000E-01  8.723398E-01  1.027221E-02  0.000000E+00  6.627577E-03 -7.161904E-05  1.386132E-18  2.268819E-01  0.000000E+00
  8.750810E-01  1.015560E-02  5.000000E-01  8.839186E-01  1.006740E-02  0.000000E+00  6.773143E-03 -1.641036E-04  3.112877E-19  2.307620E-01  0.000000E+00
  8.859290E-01  9.823543E-03  5.000000E-01  8.948761E-01  9.731985E-03  0.000000E+00  6.972930E-03 -2.549759E-04 -7.842147E-19  2.311927E-01  0.000000E+00
  8.961710E-01  9.389884E-03  5.000000E-01  9.052215E-01  9.293946E-03  0.000000E+00  7.204058E-03 -3.434207E-04 -1.511774E-18  2.289936E-01  0.000000E+00
  9.058170E-01  8.880362E-03  5.000000E-01  9.149650E-01  8.779278E-03  0.000000E+00  7.451717E-03 -4.287955E-04 -8.056777E-19  2.248664E-01  0.000000E+00
  9.148770E-01  8.317638E-03  5.000000E-01  9.241165E-01  8.210871E-03  0.000000E+00  7.707208E-03 -5.106111E-04 -5.392421E-19  2.192736E-01  0.000000E+00
  9.148770E-01  8.317638E-03  5.000000E-01  9.241165E-01  8.210871E-03  0.000000E+00  7.707208E-03 -5.106111E-04 -5.392421E-19  2.192736E-01  0.000000E+00
  9.233640E-01  7.721336E-03  5.000000E-01  9.326892E-01  7.608547E-03  0.000000E+00  7.965542E-03 -5.886345E-04 -3.703511E-19  2.125739E-01  0.000000E+00
  9.312880E-01  7.107844E-03  5.000000E-01  9.406932E-01  6.988859E-03  0.000000E+00  8.224219E-03 -6.628393E-04  8.657422E-19  2.050635E-01  0.000000E+00
  9.386620E-01  6.490814E-03  5.000000E-01  9.481417E-01  6.365597E-03  0.000000E+00  8.482139E-03 -7.333233E-04  1.348608E-18  1.969469E-01  0.000000E+00
  9.454960E-01  5.881511E-03  5.000000E-01  9.550447E-01  5.750141E-03  0.000000E+00  8.738686E-03 -8.001767E-04  1.778784E-18  1.883710E-01  0.000000E+00
  9.518040E-01  5.289115E-03  5.000000E-01  9.614164E-01  5.151763E-03  0.000000E+00  8.993998E-03 -8.636371E-04  1.493924E-18  1.794910E-01  0.000000E+00
  9.575950E-01  4.721124E-03  5.000000E-01  9.672659E-01  4.578035E-03  0.000000E+00  9.249596E-03 -9.241080E-04 -8.233365E-19  1.704165E-01  0.000000E+00
  9.628810E-01  4.183584E-03  5.000000E-01  9.726053E-01  4.035067E-03  0.000000E+00  9.509072E-03 -9.821475E-04 -1.257747E-18  1.612231E-01  0.000000E+00
  9.676710E-01  3.681385E-03  5.000000E-01  9.774436E-01  3.527796E-03  0.000000E+00  9.779247E-03 -1.038708E-03  1.419710E-19  1.519942E-01  0.000000E+00
  9.719750E-01  3.218454E-03  5.000000E-01  9.817911E-01  3.060190E-03  0.000000E+00  1.006948E-02 -1.094955E-03  1.258661E-19  1.428046E-01  0.000000E+00
  9.758020E-01  2.797898E-03  5.000000E-01  9.856567E-01  2.635386E-03  0.000000E+00  1.038468E-02 -1.151632E-03 -6.812769E-19  1.337313E-01  0.000000E+00
  9.791590E-01  2.422232E-03  5.000000E-01  9.890477E-01  2.255927E-03  0.000000E+00  1.070558E-02 -1.206946E-03 -4.531925E-19  1.247080E-01  0.000000E+00
  9.820540E-01  2.093404E-03  5.000000E-01  9.919719E-01  1.923778E-03  0.000000E+00  1.096970E-02 -1.254747E-03  6.229585E-18  1.161464E-01  0.000000E+00
  9.844930E-01  1.812965E-03  5.000000E-01  9.944355E-01  1.640506E-03  0.000000E+00  1.105687E-02 -1.277747E-03  2.524179E-17  1.090084E-01  0.000000E+00
  9.864820E-01  1.582075E-03  5.000000E-01  9.964446E-01  1.407284E-03  0.000000E+00  1.065422E-02 -1.230035E-03  4.153758E-17  9.971230E-02  0.000000E+00
  9.880240E-01  1.401664E-03  5.000000E-01  9.980022E-01  1.225052E-03  0.000000E+00  9.253371E-03 -1.093062E-03 -4.838507E-17  8.228743E-02  0.000000E+00
  9.891220E-01  1.272357E-03  5.000000E-01  9.991113E-01  1.094438E-03  0.000000E+00  8.600983E-03 -1.128505E-03 -5.214337E-16  9.612721E-02  0.000000E+00
  9.897810E-01  1.194594E-03  5.000000E-01  9.997769E-01  1.015890E-03  0.000000E+00  1.591276E-02 -6.815322E-04 -1.574426E-15  1.884380E-01  0.000000E+00
  9.900000E-01  1.168656E-03  5.000000E-01  9.999981E-01  9.896902E-04  0.000000E+00  1.323594E-02 -1.588337E-03 -2.051468E-15 -5.345389E-02  0.000000E+00
  9.900000E-01  1.354877E-03  5.000000E-01  9.999981E-01  1.177792E-03  0.000000E+00  1.222208E-03 -1.354643E-02 -1.293185E-15 -1.979939E-01  0.000000E+00
  9.900000E-01  1.541087E-03  5.000000E-01  9.999981E-01  1.365883E-03  0.000000E+00 -7.361140E-04 -1.443711E-02 -3.334941E-16 -1.784890E-02  0.000000E+00
  9.900000E-01  1.727308E-03  5.000000E-01  9.999981E-01  1.553985E-03  0.000000E+00 -4.625453E-04  3.186612E-03  4.528112E-16 -2.660176E-02  0.000000E+00
  9.900000E-01  1.913529E-03  5.000000E-01  9.999981E-01  1.742086E-03  0.000000E+00  7.946911E-04  3.462924E-03  1.606182E-15 -1.485648E-01  0.000000E+00
  9.900000E-01  2.099750E-03  5.000000E-01  9.999981E-01  1.930188E-03  0.000000E+00  7.987414E-03 -4.475010E-03  2.441303E-15 -5.264031E-02  0.000000E+00
  9.900000E-01  2.099750E-03  5.000000E-01  9.999981E-01  1.930188E-03  0.000000E+00  7.987414E-03 -4.475010E-03  2.441303E-15 -5.264031E-02  0.000000E+00
  9.897920E-01  2.143015E-03  5.000000E-01  9.997880E-01  1.973890E-03  0.000000E+00  8.714264E-03 -2.631304E-03  1.745892E-15  8.829374E-02  0.000000E+00
  9.891660E-01  2.272582E-03  5.000000E-01  9.991557E-01  2.104765E-03  0.000000E+00  3.083211E-03 -5.498551E-04  5.699682E-16  1.689737E-02  0.000000E+00
  9.881230E-01  2.487775E-03  5.000000E-01  9.981022E-01  2.322132E-03  0.000000E+00  2.986693E-03 -6.095581E-04  5.173167E-17  2.950229E-03  0.000000E+00
  9.866580E-01  2.787484E-03  5.000000E-01  9.966224E-01  2.624867E-03  0.000000E+00  3.664693E-03 -7.541815E-04 -5.562155E-17  7.632987E-03  0.000000E+00
  9.847700E-01  3.170108E-03  5.000000E-01  9.947153E-01  3.011356E-03  0.000000E+00  3.936582E-03 -7.925374E-04 -3.899628E-17  4.023333E-03  0.000000E+00
  9.824550E-01  3.633598E-03  5.000000E-01  9.923769E-01  3.479526E-03  0.000000E+00  4.104015E-03 -8.143902E-04 -1.466636E-17 -3.291317E-03  0.000000E+00
  9.797070E-01  4.175387E-03  5.000000E-01  9.896012E-01  4.026787E-03  0.000000E+00  4.302725E-03 -8.407335E-04 -3.100363E-18 -1.141128E-02  0.000000E+00
  9.765220E-01  4.792423E-03  5.000000E-01  9.863840E-01  4.650055E-03  0.000000E+00  4.544710E-03 -8.711991E-04 -2.053242E-20 -2.063679E-02  0.000000E+00
  9.728930E-01  5.481126E-03  5.000000E-01  9.827184E-01  5.345713E-03  0.000000E+00  4.829937E-03 -9.055090E-04 -3.991243E-19 -3.099485E-02  0.000000E+00
  9.688130E-01  6.237346E-03  5.000000E-01  9.785972E-01  6.109570E-03  0.000000E+00  5.153010E-03 -9.419684E-04 -4.239549E-19 -4.222699E-02  0.000000E+00
  9.642740E-01  7.056394E-03  5.000000E-01  9.740123E-01  6.936889E-03  0.000000E+00  5.503815E-03 -9.778319E-04 -5.624751E-19 -5.406519E-02  0.000000E+00
  9.592670E-01  7.932984E-03  5.000000E-01  9.689548E-01  7.822332E-03  0.000000E+00  5.872386E-03 -1.010645E-03 -1.482194E-18 -6.633394E-02  0.000000E+00
  9.537850E-01  8.861269E-03  5.000000E-01  9.634174E-01  8.759992E-03  0.000000E+00  6.250568E-03 -1.038250E-03 -9.650977E-19 -7.874644E-02  0.000000E+00
  9.478160E-01  9.834703E-03  5.000000E-01  9.573881E-01  9.743257E-03  0.000000E+00  6.630879E-03 -1.058893E-03  7.174655E-19 -9.105009E-02  0.000000E+00
  9.413520E-01  1.084631E-02  5.000000E-01  9.508588E-01  1.076508E-02  0.000000E+00  7.006541E-03 -1.071197E-03  7.911196E-19 -1.029738E-01  0.000000E+00
  9.343800E-01  1.188842E-02  5.000000E-01  9.438164E-01  1.181771E-02  0.000000E+00  7.370644E-03 -1.074006E-03 -1.896076E-19 -1.141969E-01  0.000000E+00
  9.268920E-01  1.295276E-02  5.000000E-01  9.362528E-01  1.289280E-02  0.000000E+00  7.715917E-03 -1.066452E-03 -1.259578E-18 -1.244336E-01  0.000000E+00
  9.188750E-01  1.403075E-02  5.000000E-01  9.281548E-01  1.398168E-02  0.000000E+00  8.034605E-03 -1.047904E-03 -2.121873E-18 -1.333227E-01  0.000000E+00
  9.103190E-01  1.511340E-02  5.000000E-01  9.195124E-01  1.507527E-02  0.000000E+00  8.317875E-03 -1.018139E-03 -1.797564E-18 -1.405252E-01  0.000000E+00
  9.012130E-01  1.619160E-02  5.000000E-01  9.103145E-01  1.616435E-02  0.000000E+00  8.555836E-03 -9.772355E-04 -8.238187E-19 -1.456654E-01  0.000000E+00
  8.915460E-01  1.725628E-02  5.000000E-01  9.005498E-01  1.723979E-02  0.000000E+00  8.737172E-03 -9.258889E-04 -3.914267E-20 -1.483985E-01  0.000000E+00
  8.813080E-01  1.829932E-02  5.000000E-01  8.902084E-01  1.829336E-02  0.000000E+00  8.848601E-03 -8.655012E-04 -1.782791E-18 -1.483115E-01  0.000000E+00
  8.704900E-01  1.931396E-02  5.000000E-01  8.792812E-01  1.931825E-02  0.000000E+00  8.873906E-03 -7.983951E-04 -2.876391E-18 -1.449714E-01  0.000000E+00
  8.704900E-01  1.931396E-02  5.000000E-01  8.792812E-01  1.931825E-02  0.000000E+00  8.873906E-03 -7.983951E-04 -2.876391E-18 -1.449714E-01  0.000000E+00
  8.590830E-01  2.029665E-02  5.000000E-01  8.677590E-01  2.031086E-02  0.000000E+00  8.795765E-03 -7.283686E-04 -1.877694E-20 -1.382614E-01  0.000000E+00
  8.470810E-01  2.124981E-02  5.000000E-01  8.556358E-01  2.127364E-02  0.000000E+00  8.599409E-03 -6.610047E-04  7.352578E-19 -1.282266E-01  0.000000E+00
  8.344780E-01  2.218546E-02  5.000000E-01  8.429055E-01  2.221874E-02  0.000000E+00  8.273295E-03 -6.034227E-04 -9.058831E-21 -1.148520E-01  0.000000E+00
  8.212700E-01  2.313144E-02  5.000000E-01  8.295641E-01  2.317428E-02  0.000000E+00  7.809098E-03 -5.641415E-04  4.188553E-19 -9.825138E-02  0.000000E+00
  8.074550E-01  2.414088E-02  5.000000E-01  8.156096E-01  2.419392E-02  0.000000E+00  7.211131E-03 -5.529818E-04  8.006638E-20 -8.011156E-02  0.000000E+00
  7.930350E-01  2.530465E-02  5.000000E-01  8.010440E-01  2.536944E-02  0.000000E+00  6.526459E-03 -5.781005E-04  6.014957E-19 -6.648645E-02  0.000000E+00
  7.780130E-01  2.676186E-02  5.000000E-01  7.858703E-01  2.684137E-02  0.000000E+00  5.869945E-03 -6.369537E-04  9.003270E-19 -6.493630E-02  0.000000E+00
  7.623950E-01  2.865361E-02  5.000000E-01  7.700945E-01  2.875222E-02  0.000000E+00  5.382013E-03 -7.133590E-04 -7.196917E-19 -7.566593E-02  0.000000E+00
  7.461930E-01  3.100306E-02  5.000000E-01  7.537289E-01  3.112540E-02  0.000000E+00  5.157922E-03 -8.006974E-04 -2.029261E-18 -9.657665E-02  0.000000E+00
  7.294180E-01  3.378130E-02  5.000000E-01  7.367845E-01  3.393170E-02  0.000000E+00  5.252649E-03 -9.115975E-04 -6.889378E-19 -1.302698E-01  0.000000E+00
  7.120900E-01  3.691426E-02  5.000000E-01  7.192815E-01  3.709629E-02  0.000000E+00  5.716356E-03 -1.056570E-03  3.550023E-19 -1.795648E-01  0.000000E+00
  6.942280E-01  4.026985E-02  5.000000E-01  7.012391E-01  4.048577E-02  0.000000E+00  6.575511E-03 -1.222698E-03 -4.194545E-19 -2.417648E-01  0.000000E+00
  6.758590E-01  4.365303E-02  5.000000E-01  6.826846E-01  4.390312E-02  0.000000E+00  7.754361E-03 -1.356923E-03 -4.017474E-19 -3.018872E-01  0.000000E+00
  6.570120E-01  4.681590E-02  5.000000E-01  6.636472E-01  4.709793E-02  0.000000E+00  9.010218E-03 -1.394369E-03  1.102652E-18 -3.415788E-01  0.000000E+00
  6.377220E-01  4.958537E-02  5.000000E-01  6.441624E-01  4.989537E-02  0.000000E+00  1.002850E-02 -1.339796E-03  1.973276E-18 -3.611462E-01  0.000000E+00
  6.180260E-01  5.203339E-02  5.000000E-01  6.242675E-01  5.236812E-02  0.000000E+00  1.062254E-02 -1.252752E-03  1.328260E-18 -3.689013E-01  0.000000E+00
  5.979670E-01  5.427833E-02  5.000000E-01  6.040059E-01  5.463573E-02  0.000000E+00  1.078184E-02 -1.176541E-03 -1.282230E-18 -3.680929E-01  0.000000E+00
  5.775910E-01  5.644658E-02  5.000000E-01  5.834242E-01  5.682588E-02  0.000000E+00  1.061440E-02 -1.136885E-03 -2.510749E-18 -3.671545E-01  0.000000E+00
  5.569470E-01  5.866799E-02  5.000000E-01  5.625717E-01  5.906972E-02  0.000000E+00  1.032294E-02 -1.147369E-03 -8.981605E-19 -3.784852E-01  0.000000E+00
  5.360860E-01  6.105772E-02  5.000000E-01  5.415000E-01  6.148358E-02  0.000000E+00  1.014514E-02 -1.192601E-03 -1.755067E-18 -4.059796E-01  0.000000E+00
  5.150640E-01  6.359312E-02  5.000000E-01  5.202657E-01  6.404458E-02  0.000000E+00  1.024410E-02 -1.241511E-03 -3.150925E-18 -4.446766E-01  0.000000E+00
  4.939370E-01  6.616491E-02  5.000000E-01  4.989253E-01  6.664235E-02  0.000000E+00  1.066012E-02 -1.278189E-03 -1.878669E-18 -4.913337E-01  0.000000E+00
  4.727610E-01  6.866486E-02  5.000000E-01  4.775355E-01  6.916755E-02  0.000000E+00  1.134631E-02 -1.290691E-03  4.300470E-19 -5.417243E-01  0.000000E+00
  5.770140E-06  7.825450E-05  5.000000E-01  5.829537E-06 -1.117231E-04  0.000000E+00  8.863110E-03 -5.268250E-02 -5.480610E-13  7.815126E-01  0.000000E+00
  9.104010E-05 -2.385984E-04  5.000000E-01  9.196065E-05 -4.317759E-04  0.000000E+00  3.528223E-02 -6.049659E-02 -5.020039E-13  7.082929E-01  0.000000E+00
  4.796980E-04 -6.899621E-04  5.000000E-01  4.845437E-04 -8.876980E-04  0.000000E+00  5.746644E-02 -4.493887E-02 -3.443626E-13  2.141176E-01  0.000000E+00
  1.456590E-03 -1.128602E-03  5.000000E-01  1.471301E-03 -1.330768E-03  0.000000E+00  5.137289E-02 -1.797905E-02 -1.675130E-13 -1.711354E-01  0.000000E+00
  3.096410E-03 -1.437244E-03  5.000000E-01  3.127682E-03 -1.642527E-03  0.000000E+00  3.364870E-02 -4.838669E-03 -5.177790E-14 -1.870333E-01  0.000000E+00
  5.335170E-03 -1.598042E-03  5.000000E-01  5.389052E-03 -1.804948E-03  0.000000E+00  2.224645E-02 -9.290425E-04 -3.042869E-15 -9.416735E-02  0.000000E+00
  8.129670E-03 -1.608621E-03  5.000000E-01  8.211774E-03 -1.815634E-03  0.000000E+00  1.683531E-02  3.189927E-04  7.547473E-15 -3.994871E-02  0.000000E+00
  1.145600E-02 -1.455335E-03  5.000000E-01  1.157170E-02 -1.660801E-03  0.000000E+00  1.351301E-02  9.320039E-04  5.249499E-15 -2.223019E-02  0.000000E+00
  1.529970E-02 -1.080841E-03  5.000000E-01  1.545421E-02 -1.282524E-03  0.000000E+00  1.035912E-02  1.254573E-03  1.889939E-15 -1.157004E-02  0.000000E+00
  1.962420E-02 -4.131409E-04  5.000000E-01  1.982239E-02 -6.080812E-04  0.000000E+00  7.412509E-03  1.249766E-03  2.555759E-16  2.640777E-02  0.000000E+00
  2.439810E-02  5.099235E-04  5.000000E-01  2.464450E-02  3.243054E-04  0.000000E+00  5.714787E-03  1.095598E-03 -1.484879E-16  1.111070E-01  0.000000E+00
  2.966100E-02  1.509046E-03  5.000000E-01  2.996055E-02  1.333518E-03  0.000000E+00  5.721214E-03  1.055425E-03 -1.213777E-16  1.967912E-01  0.000000E+00
  3.543640E-02  2.522988E-03  5.000000E-01  3.579428E-02  2.357700E-03  0.000000E+00  6.615378E-03  1.125905E-03 -4.386547E-17  2.375119E-01  0.000000E+00
  4.172970E-02  3.561262E-03  5.000000E-01  4.215113E-02  3.406459E-03  0.000000E+00  7.404995E-03  1.197717E-03 -6.110878E-18  2.501912E-01  0.000000E+00
  4.854440E-02  4.647221E-03  5.000000E-01  4.903466E-02  4.503386E-03  0.000000E+00  7.744712E-03  1.231538E-03  3.473311E-18  2.586440E-01  0.000000E+00
  5.588220E-02  5.813735E-03  5.000000E-01  5.644656E-02  5.681680E-03  0.000000E+00  7.732184E-03  1.225354E-03  2.165931E-18  2.713781E-01  0.000000E+00
  6.375220E-02  7.058592E-03  5.000000E-01  6.439604E-02  6.939110E-03  0.000000E+00  7.578163E-03  1.181740E-03 -1.015475E-18  2.896602E-01  0.000000E+00
  7.217040E-02  8.352310E-03  5.000000E-01  7.289926E-02  8.245893E-03  0.000000E+00  7.440108E-03  1.111789E-03 -6.675241E-19  3.098223E-01  0.000000E+00
  8.115500E-02  9.655109E-03  5.000000E-01  8.197460E-02  9.561849E-03  0.000000E+00  7.371929E-03  1.029547E-03  1.254220E-18  3.273739E-01  0.000000E+00
  9.072040E-02  1.093814E-02  5.000000E-01  9.163660E-02  1.085784E-02  0.000000E+00  7.359528E-03  9.433502E-04  3.858146E-18  3.403087E-01  0.000000E+00
  1.008780E-01  1.217965E-02  5.000000E-01  1.018968E-01  1.211188E-02  0.000000E+00  7.385530E-03  8.539520E-04  4.235029E-18  3.498648E-01  0.000000E+00
  1.116380E-01  1.335369E-02  5.000000E-01  1.127654E-01  1.329778E-02  0.000000E+00  7.456750E-03  7.603436E-04  1.406609E-18  3.571536E-01  0.000000E+00
  1.230100E-01  1.443310E-02  5.000000E-01  1.242523E-01  1.438810E-02  0.000000E+00  7.590543E-03  6.619694E-04  1.208002E-18  3.618823E-01  0.000000E+00
  1.350030E-01  1.538855E-02  5.000000E-01  1.363664E-01  1.535319E-02  0.000000E+00  7.800483E-03  5.575555E-04  2.403863E-18  3.634819E-01  0.000000E+00
  1.350030E-01  1.538855E-02  5.000000E-01  1.363664E-01  1.535319E-02  0.000000E+00  7.800483E-03  5.575555E-04  2.403863E-18  3.634819E-01  0.000000E+00
  1.476220E-01  1.619038E-02  5.000000E-01  1.491129E-01  1.616313E-02  0.000000E+00  8.089559E-03  4.458147E-04  1.544583E-18  3.612928E-01  0.000000E+00
  1.608730E-01  1.681306E-02  5.000000E-01  1.624977E-01  1.679209E-02  0.000000E+00  8.443623E-03  3.278567E-04 -5.264786E-19  3.545768E-01  0.000000E+00
  1.747560E-01  1.724361E-02  5.000000E-01  1.765209E-01  1.722699E-02  0.000000E+00  8.828906E-03  2.119522E-04 -1.199220E-18  3.430636E-01  0.000000E+00
  1.892730E-01  1.749485E-02  5.000000E-01  1.911845E-01  1.748076E-02  0.000000E+00  9.193374E-03  1.190837E-04  1.009465E-18  3.267747E-01  0.000000E+00
  2.044180E-01  1.762546E-02  5.000000E-01  2.064824E-01  1.761269E-02  0.000000E+00  9.470154E-03  7.561744E-05  2.518222E-18  3.055543E-01  0.000000E+00
  2.201880E-01  1.774042E-02  5.000000E-01  2.224117E-01  1.772881E-02  0.000000E+00  9.616459E-03  8.003319E-05  2.672057E-19  2.839103E-01  0.000000E+00
  2.365750E-01  1.789701E-02  5.000000E-01  2.389642E-01  1.788699E-02  0.000000E+00  9.653659E-03  1.016458E-04 -1.362052E-18  2.688426E-01  0.000000E+00
  2.535710E-01  1.809417E-02  5.000000E-01  2.561318E-01  1.808614E-02  0.000000E+00  9.623569E-03  1.236453E-04 -1.137493E-19  2.597208E-01  0.000000E+00
  2.711570E-01  1.834046E-02  5.000000E-01  2.738955E-01  1.833491E-02  0.000000E+00  9.532034E-03  1.479490E-04  3.596487E-20  2.525370E-01  0.000000E+00
  2.893100E-01  1.864963E-02  5.000000E-01  2.922318E-01  1.864721E-02  0.000000E+00  9.362592E-03  1.761554E-04 -1.108572E-18  2.471597E-01  0.000000E+00
  3.080020E-01  1.903574E-02  5.000000E-01  3.111126E-01  1.903722E-02  0.000000E+00  9.106692E-03  2.084476E-04 -4.785542E-19  2.445311E-01  0.000000E+00
  3.271950E-01  1.951856E-02  5.000000E-01  3.304994E-01  1.952491E-02  0.000000E+00  8.776297E-03  2.399972E-04 -2.307551E-20  2.450243E-01  0.000000E+00
  3.468470E-01  2.010194E-02  5.000000E-01  3.503499E-01  2.011418E-02  0.000000E+00  8.420947E-03  2.545014E-04 -4.229349E-19  2.505745E-01  0.000000E+00
  3.669110E-01  2.072214E-02  5.000000E-01  3.706165E-01  2.074065E-02  0.000000E+00  8.124124E-03  2.382564E-04 -1.279950E-19  2.611740E-01  0.000000E+00
  3.873360E-01  2.128755E-02  5.000000E-01  3.912478E-01  2.131177E-02  0.000000E+00  7.965228E-03  1.894489E-04  7.778431E-19  2.725320E-01  0.000000E+00
  4.080670E-01  2.169736E-02  5.000000E-01  4.121881E-01  2.172571E-02  0.000000E+00  7.993724E-03  1.053993E-04  1.366193E-18  2.808087E-01  0.000000E+00
  4.290470E-01  2.183960E-02  5.000000E-01  4.333800E-01  2.186939E-02  0.000000E+00  8.225731E-03 -1.937830E-05  1.220706E-19  2.848702E-01  0.000000E+00
  4.502140E-01  2.160488E-02  5.000000E-01  4.547608E-01  2.163230E-02  0.000000E+00  8.617713E-03 -1.660555E-04 -2.014883E-19  2.810969E-01  0.000000E+00
  4.715070E-01  2.102353E-02  5.000000E-01  4.762688E-01  2.104508E-02  0.000000E+00  9.036885E-03 -2.822338E-04 -4.942238E-20  2.643767E-01  0.000000E+00
  4.928620E-01  2.027311E-02  5.000000E-01  4.978395E-01  2.028708E-02  0.000000E+00  9.312098E-03 -3.248584E-04 -8.474575E-19  2.395022E-01  0.000000E+00
  5.142140E-01  1.953685E-02  5.000000E-01  5.194071E-01  1.954339E-02  0.000000E+00  9.317794E-03 -2.805759E-04 -2.378962E-19  2.168367E-01  0.000000E+00
  5.355000E-01  1.899021E-02  5.000000E-01  5.409081E-01  1.899122E-02  0.000000E+00  9.001080E-03 -1.584109E-04  1.890346E-18  2.007267E-01  0.000000E+00
  5.566560E-01  1.879602E-02  5.000000E-01  5.622777E-01  1.879507E-02  0.000000E+00  8.410982E-03 -1.362439E-05  3.958509E-18  1.960014E-01  0.000000E+00
  4.727610E-01  6.866486E-02  5.000000E-01  4.775355E-01  6.916755E-02  0.000000E+00  1.134631E-02 -1.290691E-03  4.300470E-19 -5.417243E-01  0.000000E+00
  4.515970E-01  7.098907E-02  5.000000E-01  4.561577E-01  7.151523E-02  0.000000E+00  1.218788E-02 -1.258671E-03  3.573383E-19 -5.871363E-01  0.000000E+00
  4.305020E-01  7.304282E-02  5.000000E-01  4.348497E-01  7.358973E-02  0.000000E+00  1.301955E-02 -1.176363E-03 -5.695360E-19 -6.223993E-01  0.000000E+00
  4.095340E-01  7.479926E-02  5.000000E-01  4.136699E-01  7.536390E-02  0.000000E+00  1.370072E-02 -1.068252E-03 -4.784985E-19 -6.509072E-01  0.000000E+00
  3.887520E-01  7.630323E-02  5.000000E-01  3.926781E-01  7.688306E-02  0.000000E+00  1.418562E-02 -9.588359E-04  1.526874E-19 -6.768222E-01  0.000000E+00
  3.682080E-01  7.759677E-02  5.000000E-01  3.719266E-01  7.818966E-02  0.000000E+00  1.450731E-02 -8.556712E-04  9.912998E-19 -7.022864E-01  0.000000E+00
  3.479570E-01  7.871193E-02  5.000000E-01  3.514711E-01  7.931608E-02  0.000000E+00  1.473619E-02 -7.613732E-04  2.208673E-18 -7.309058E-01  0.000000E+00
  3.280470E-01  7.967252E-02  5.000000E-01  3.313600E-01  8.028637E-02  0.000000E+00  1.496290E-02 -6.747117E-04  2.933914E-18 -7.666874E-01  0.000000E+00
  3.085240E-01  8.049117E-02  5.000000E-01  3.116398E-01  8.111329E-02  0.000000E+00  1.527749E-02 -5.832883E-04  2.604700E-18 -8.106300E-01  0.000000E+00
  2.894320E-01  8.115034E-02  5.000000E-01  2.923550E-01  8.177912E-02  0.000000E+00  1.573767E-02 -4.691061E-04  9.987409E-19 -8.612447E-01  0.000000E+00
  2.708110E-01  8.162125E-02  5.000000E-01  2.735460E-01  8.225479E-02  0.000000E+00  1.636011E-02 -3.189713E-04 -6.578105E-19 -9.181979E-01  0.000000E+00
  2.526960E-01  8.187397E-02  5.000000E-01  2.552480E-01  8.251005E-02  0.000000E+00  1.715069E-02 -1.219026E-04 -4.529444E-19 -9.843210E-01  0.000000E+00
  2.351200E-01  8.188323E-02  5.000000E-01  2.374945E-01  8.251941E-02  0.000000E+00  1.814574E-02  1.459898E-04 -1.284360E-20 -1.063787E+00  0.000000E+00
  2.181120E-01  8.160606E-02  5.000000E-01  2.203147E-01  8.223944E-02  0.000000E+00  1.942079E-02  5.335722E-04 -1.945221E-18 -1.157529E+00  0.000000E+00
  2.017010E-01  8.098204E-02  5.000000E-01  2.037380E-01  8.160912E-02  0.000000E+00  2.103837E-02  1.120419E-03 -3.539254E-18 -1.256454E+00  0.000000E+00
  1.859190E-01  7.992148E-02  5.000000E-01  1.877966E-01  8.053785E-02  0.000000E+00  2.294071E-02  1.989151E-03 -6.550795E-19 -1.341873E+00  0.000000E+00
  1.707920E-01  7.834099E-02  5.000000E-01  1.725169E-01  7.894140E-02  0.000000E+00  2.489765E-02  3.150892E-03  3.164658E-18 -1.398872E+00  0.000000E+00
  1.563470E-01  7.621866E-02  5.000000E-01  1.579260E-01  7.679763E-02  0.000000E+00  2.661109E-02  4.531393E-03  5.937732E-19 -1.420431E+00  0.000000E+00
  1.426070E-01  7.357710E-02  5.000000E-01  1.440472E-01  7.412940E-02  0.000000E+00  2.784517E-02  6.011777E-03 -5.015523E-18 -1.404725E+00  0.000000E+00
  1.295900E-01  7.047010E-02  5.000000E-01  1.308987E-01  7.099102E-02  0.000000E+00  2.848684E-02  7.461847E-03 -7.251889E-18 -1.355493E+00  0.000000E+00
  1.173060E-01  6.697075E-02  5.000000E-01  1.184907E-01  6.745632E-02  0.000000E+00  2.855415E-02  8.779959E-03 -6.172137E-18 -1.279262E+00  0.000000E+00
  1.057600E-01  6.315824E-02  5.000000E-01  1.068281E-01  6.360531E-02  0.000000E+00  2.815086E-02  9.911779E-03 -3.754742E-18 -1.182850E+00  0.000000E+00
  9.495290E-02  5.911185E-02  5.000000E-01  9.591184E-02  5.951806E-02  0.000000E+00  2.741074E-02  1.084041E-02 -7.292788E-20 -1.072892E+00  0.000000E+00
  8.487680E-02  5.490825E-02  5.000000E-01  8.573398E-02  5.527201E-02  0.000000E+00  2.646134E-02  1.157647E-02  7.021752E-18 -9.542160E-01  0.000000E+00
  8.487680E-02  5.490825E-02  5.000000E-01  8.573398E-02  5.527201E-02  0.000000E+00  2.646134E-02  1.157647E-02  7.021752E-18 -9.542160E-01  0.000000E+00
  7.552090E-02  5.061867E-02  5.000000E-01  7.628360E-02  5.093911E-02  0.000000E+00  2.539253E-02  1.214029E-02  1.101967E-17 -8.286636E-01  0.000000E+00
  6.687020E-02  4.630677E-02  5.000000E-01  6.754553E-02  4.658366E-02  0.000000E+00  2.424611E-02  1.252866E-02  1.277586E-17 -6.986263E-01  0.000000E+00
  5.889940E-02  4.203597E-02  5.000000E-01  5.949423E-02  4.226973E-02  0.000000E+00  2.305610E-02  1.272600E-02  1.405939E-17 -5.699310E-01  0.000000E+00
  5.157140E-02  3.786683E-02  5.000000E-01  5.209223E-02  3.805849E-02  0.000000E+00  2.189719E-02  1.276418E-02  1.090154E-17 -4.493303E-01  0.000000E+00
  4.484650E-02  3.384796E-02  5.000000E-01  4.529941E-02  3.399902E-02  0.000000E+00  2.088369E-02  1.275478E-02  9.415452E-18 -3.401690E-01  0.000000E+00
  3.869820E-02  3.000868E-02  5.000000E-01  3.908902E-02  3.012098E-02  0.000000E+00  2.012556E-02  1.285022E-02  3.000112E-18 -2.411345E-01  0.000000E+00
  3.311550E-02  2.636292E-02  5.000000E-01  3.344994E-02  2.643840E-02  0.000000E+00  1.966948E-02  1.316114E-02 -1.687679E-17 -1.469245E-01  0.000000E+00
  2.809130E-02  2.292069E-02  5.000000E-01  2.837500E-02  2.296140E-02  0.000000E+00  1.938202E-02  1.365512E-02 -4.138401E-17 -4.314760E-02  0.000000E+00
  2.362330E-02  1.968939E-02  5.000000E-01  2.386188E-02  1.969747E-02  0.000000E+00  1.891958E-02  1.400570E-02 -8.357204E-17  7.967331E-02  0.000000E+00
  1.966610E-02  1.669060E-02  5.000000E-01  1.986471E-02  1.666840E-02  0.000000E+00  1.810785E-02  1.376220E-02 -1.531431E-16  1.981676E-01  0.000000E+00
  1.609460E-02  1.396540E-02  5.000000E-01  1.625714E-02  1.391567E-02  0.000000E+00  1.724200E-02  1.300659E-02 -1.555596E-16  2.874590E-01  0.000000E+00
  1.282740E-02  1.152939E-02  5.000000E-01  1.295695E-02  1.145506E-02  0.000000E+00  1.681558E-02  1.238986E-02  2.729052E-16  3.503209E-01  0.000000E+00
  9.860990E-03  9.370882E-03  5.000000E-01  9.960579E-03  9.274751E-03  0.000000E+00  1.713121E-02  1.251379E-02  1.847983E-15  4.040821E-01  0.000000E+00
  7.251350E-03  7.459317E-03  5.000000E-01  7.324583E-03  7.343881E-03  0.000000E+00  1.818075E-02  1.359958E-02  5.003364E-15  4.625254E-01  0.000000E+00
  5.038810E-03  5.773340E-03  5.000000E-01  5.089699E-03  5.640877E-03  0.000000E+00  1.975382E-02  1.562316E-02  7.505568E-15  5.283461E-01  0.000000E+00
  3.239710E-03  4.304022E-03  5.000000E-01  3.272429E-03  4.156721E-03  0.000000E+00  2.132486E-02  1.847004E-02 -1.404317E-17  6.077696E-01  0.000000E+00
  1.861880E-03  3.048808E-03  5.000000E-01  1.880684E-03  2.888830E-03  0.000000E+00  2.142156E-02  2.131534E-02 -3.744332E-14  7.145867E-01  0.000000E+00
  9.013910E-04  2.011646E-03  5.000000E-01  9.104954E-04  1.841194E-03  0.000000E+00  1.710596E-02  2.075781E-02 -1.286037E-13  8.615425E-01  0.000000E+00
  3.295630E-04  1.202265E-03  5.000000E-01  3.328924E-04  1.023639E-03  0.000000E+00  6.479445E-03  8.636061E-03 -2.765174E-13  1.016193E+00  0.000000E+00
  7.194000E-05  6.304914E-04  5.000000E-01  7.266766E-05  4.460910E-04  0.000000E+00 -4.247079E-03 -2.210383E-02 -4.320192E-13  1.039448E+00  0.000000E+00
  4.516100E-06  2.972153E-04  5.000000E-01  4.562833E-06  1.094490E-04  0.000000E+00 -6.155134E-03 -5.463443E-02 -5.119892E-13  8.452031E-01  0.000000E+00
 -1.112850E-09  1.888606E-04  5.000000E-01  0.000000E+00  0.000000E+00  0.000000E+00 -1.724788E-03 -5.645809E-02 -5.290678E-13  6.874089E-01  0.000000E+00