 Title = "ADflow Slice Data"
Variables =  "CoordinateX"  "CoordinateY"  "CoordinateZ"  "XoC"  "YoC"  "ZoC" "VelocityX" "VelocityY" "VelocityZ" "CoefPressure" "Mach" 
Zone T= "Slice_0001 None Absolute Regular z = 0.50000000"
 Nodes =          192  Elements=          184  ZONETYPE=FELINESEG
 DATAPACKING=POINT
  5.566560E-01  2.724836E-02  5.000000E-01  5.622776E-01  2.748812E-02  0.000000E+00  7.512024E-03  2.996879E-05  1.781853E-19  2.961625E-01  0.000000E+00
  5.776220E-01  2.723054E-02  5.000000E-01  5.834553E-01  2.747012E-02  0.000000E+00  7.614915E-03 -3.699076E-05  2.276027E-18  2.935502E-01  0.000000E+00
  5.983370E-01  2.704701E-02  5.000000E-01  6.043795E-01  2.728474E-02  0.000000E+00  7.714219E-03 -9.235867E-05  1.523007E-18  2.882250E-01  0.000000E+00
  6.187480E-01  2.674042E-02  5.000000E-01  6.249966E-01  2.697505E-02  0.000000E+00  7.783682E-03 -1.340514E-04  3.956045E-19  2.823533E-01  0.000000E+00
  6.388030E-01  2.635170E-02  5.000000E-01  6.452542E-01  2.658240E-02  0.000000E+00  7.809563E-03 -1.616835E-04  4.791068E-19  2.771486E-01  0.000000E+00
  6.584530E-01  2.591838E-02  5.000000E-01  6.651026E-01  2.614470E-02  0.000000E+00  7.788167E-03 -1.776038E-04 -5.666600E-19  2.729460E-01  0.000000E+00
  6.776550E-01  2.546641E-02  5.000000E-01  6.844985E-01  2.568818E-02  0.000000E+00  7.731756E-03 -1.919372E-04 -8.117509E-19  2.709984E-01  0.000000E+00
  6.963720E-01  2.497896E-02  5.000000E-01  7.034045E-01  2.519580E-02  0.000000E+00  7.668961E-03 -2.160033E-04  4.867249E-19  2.718363E-01  0.000000E+00
  7.145680E-01  2.442740E-02  5.000000E-01  7.217843E-01  2.463867E-02  0.000000E+00  7.625822E-03 -2.524974E-04  8.014526E-19  2.734930E-01  0.000000E+00
  7.322140E-01  2.379271E-02  5.000000E-01  7.396085E-01  2.399757E-02  0.000000E+00  7.613222E-03 -2.986895E-04 -2.301585E-19  2.741757E-01  0.000000E+00
  7.492860E-01  2.306692E-02  5.000000E-01  7.568529E-01  2.326445E-02  0.000000E+00  7.632546E-03 -3.512001E-04 -1.834011E-18  2.734738E-01  0.000000E+00
  7.657630E-01  2.225127E-02  5.000000E-01  7.734963E-01  2.244056E-02  0.000000E+00  7.683375E-03 -4.077050E-04 -1.261128E-18  2.714254E-01  0.000000E+00
  7.816300E-01  2.135310E-02  5.000000E-01  7.895235E-01  2.153332E-02  0.000000E+00  7.766427E-03 -4.684136E-04  2.394971E-19  2.681622E-01  0.000000E+00
  7.968740E-01  2.037837E-02  5.000000E-01  8.049215E-01  2.054874E-02  0.000000E+00  7.885863E-03 -5.360263E-04  9.053666E-19  2.641498E-01  0.000000E+00
  8.114890E-01  1.932720E-02  5.000000E-01  8.196841E-01  1.948696E-02  0.000000E+00  8.043520E-03 -6.096255E-04  7.125292E-19  2.589223E-01  0.000000E+00
  8.254710E-01  1.821397E-02  5.000000E-01  8.338073E-01  1.836250E-02  0.000000E+00  8.229994E-03 -6.833957E-04  8.571515E-19  2.516248E-01  0.000000E+00
  8.388180E-01  1.706089E-02  5.000000E-01  8.472891E-01  1.719777E-02  0.000000E+00  8.429342E-03 -7.522669E-04  2.424954E-18  2.426269E-01  0.000000E+00
  8.515320E-01  1.589094E-02  5.000000E-01  8.601315E-01  1.601601E-02  0.000000E+00  8.628833E-03 -8.137305E-04  1.303502E-18  2.327640E-01  0.000000E+00
  8.636180E-01  1.472432E-02  5.000000E-01  8.723395E-01  1.483760E-02  0.000000E+00  8.821348E-03 -8.671607E-04  3.203038E-19  2.226071E-01  0.000000E+00
  8.750810E-01  1.357757E-02  5.000000E-01  8.839183E-01  1.367926E-02  0.000000E+00  9.003257E-03 -9.129221E-04  1.225778E-18  2.124327E-01  0.000000E+00
  8.859290E-01  1.246314E-02  5.000000E-01  8.948758E-01  1.255359E-02  0.000000E+00  9.173110E-03 -9.519202E-04  1.236550E-18  2.024485E-01  0.000000E+00
  8.961710E-01  1.138984E-02  5.000000E-01  9.052213E-01  1.146944E-02  0.000000E+00  9.331161E-03 -9.852003E-04  8.059311E-19  1.927847E-01  0.000000E+00
  9.058170E-01  1.036394E-02  5.000000E-01  9.149647E-01  1.043318E-02  0.000000E+00  9.478560E-03 -1.013709E-03  5.339074E-19  1.834917E-01  0.000000E+00
  9.148770E-01  9.389694E-03  5.000000E-01  9.241162E-01  9.449100E-03  0.000000E+00  9.616512E-03 -1.038155E-03  7.944725E-19  1.745694E-01  0.000000E+00
  9.148770E-01  9.389694E-03  5.000000E-01  9.241162E-01  9.449100E-03  0.000000E+00  9.616512E-03 -1.038155E-03  7.944725E-19  1.745694E-01  0.000000E+00
  9.233640E-01  8.469937E-03  5.000000E-01  9.326889E-01  8.520054E-03  0.000000E+00  9.746243E-03 -1.059254E-03  8.450663E-19  1.660400E-01  0.000000E+00
  9.312880E-01  7.606312E-03  5.000000E-01  9.406929E-01  7.647708E-03  0.000000E+00  9.869276E-03 -1.077713E-03 -4.869752E-19  1.579242E-01  0.000000E+00
  9.386620E-01  6.799555E-03  5.000000E-01  9.481414E-01  6.832804E-03  0.000000E+00  9.987097E-03 -1.094109E-03 -7.272837E-19  1.501990E-01  0.000000E+00
  9.454960E-01  6.049874E-03  5.000000E-01  9.550444E-01  6.075552E-03  0.000000E+00  1.010068E-02 -1.108817E-03  1.964490E-18  1.428222E-01  0.000000E+00
  9.518040E-01  5.356924E-03  5.000000E-01  9.614161E-01  5.375604E-03  0.000000E+00  1.021106E-02 -1.122247E-03  3.776244E-18  1.357949E-01  0.000000E+00
  9.575950E-01  4.720167E-03  5.000000E-01  9.672656E-01  4.732416E-03  0.000000E+00  1.032019E-02 -1.134892E-03  2.793403E-18  1.291044E-01  0.000000E+00
  9.628810E-01  4.138806E-03  5.000000E-01  9.726050E-01  4.145185E-03  0.000000E+00  1.043169E-02 -1.147308E-03  1.330064E-18  1.227188E-01  0.000000E+00
  9.676710E-01  3.611973E-03  5.000000E-01  9.774433E-01  3.613031E-03  0.000000E+00  1.055193E-02 -1.160363E-03  7.330347E-19  1.166308E-01  0.000000E+00
  9.719750E-01  3.138745E-03  5.000000E-01  9.817908E-01  3.135024E-03  0.000000E+00  1.068920E-02 -1.175003E-03 -1.639962E-19  1.108341E-01  0.000000E+00
  9.758020E-01  2.718172E-03  5.000000E-01  9.856565E-01  2.710204E-03  0.000000E+00  1.084654E-02 -1.191636E-03 -2.237084E-18  1.053411E-01  0.000000E+00
  9.791590E-01  2.349390E-03  5.000000E-01  9.890474E-01  2.337697E-03  0.000000E+00  1.100203E-02 -1.208116E-03 -4.017109E-18  1.000191E-01  0.000000E+00
  9.820540E-01  2.031558E-03  5.000000E-01  9.919716E-01  2.016656E-03  0.000000E+00  1.109027E-02 -1.218272E-03  2.758658E-18  9.519445E-02  0.000000E+00
  9.844930E-01  1.763948E-03  5.000000E-01  9.944352E-01  1.746344E-03  0.000000E+00  1.099175E-02 -1.206031E-03  2.844405E-17  9.174515E-02  0.000000E+00
  9.864820E-01  1.545894E-03  5.000000E-01  9.964443E-01  1.526088E-03  0.000000E+00  1.040896E-02 -1.130010E-03  5.484928E-17  8.614160E-02  0.000000E+00
  9.880240E-01  1.376882E-03  5.000000E-01  9.980019E-01  1.355368E-03  0.000000E+00  8.870140E-03 -9.798136E-04 -3.536420E-17  7.233871E-02  0.000000E+00
  9.891220E-01  1.256452E-03  5.000000E-01  9.991110E-01  1.233722E-03  0.000000E+00  8.137404E-03 -1.005264E-03 -5.215482E-16  8.869369E-02  0.000000E+00
  9.897810E-01  1.184320E-03  5.000000E-01  9.997766E-01  1.160861E-03  0.000000E+00  1.536960E-02 -5.095653E-04 -1.583981E-15  1.819943E-01  0.000000E+00
  9.900000E-01  1.160303E-03  5.000000E-01  9.999978E-01  1.136602E-03  0.000000E+00  1.290629E-02 -1.504137E-03 -2.060588E-15 -5.360645E-02  0.000000E+00
  9.900000E-01  1.346524E-03  5.000000E-01  9.999978E-01  1.324703E-03  0.000000E+00  1.196227E-03 -1.339582E-02 -1.315442E-15 -1.942263E-01  0.000000E+00
  9.900000E-01  1.532734E-03  5.000000E-01  9.999978E-01  1.512795E-03  0.000000E+00 -7.286504E-04 -1.414936E-02 -3.682809E-16 -1.647630E-02  0.000000E+00
  9.900000E-01  1.718955E-03  5.000000E-01  9.999978E-01  1.700896E-03  0.000000E+00 -4.616115E-04  3.340224E-03  4.365406E-16 -2.540743E-02  0.000000E+00
  9.900000E-01  1.905175E-03  5.000000E-01  9.999978E-01  1.888997E-03  0.000000E+00  8.013060E-04  3.472045E-03  1.615486E-15 -1.475806E-01  0.000000E+00
  9.900000E-01  2.091396E-03  5.000000E-01  9.999978E-01  2.077098E-03  0.000000E+00  8.095828E-03 -4.480821E-03  2.462419E-15 -5.049594E-02  0.000000E+00
  9.900000E-01  2.091396E-03  5.000000E-01  9.999978E-01  2.077098E-03  0.000000E+00  8.095828E-03 -4.480821E-03  2.462419E-15 -5.049594E-02  0.000000E+00
  9.897920E-01  2.133083E-03  5.000000E-01  9.997877E-01  2.119207E-03  0.000000E+00  8.925511E-03 -2.616301E-03  1.759210E-15  9.210988E-02  0.000000E+00
  9.891660E-01  2.258093E-03  5.000000E-01  9.991554E-01  2.245479E-03  0.000000E+00  3.306076E-03 -5.725581E-04  5.660347E-16  2.139687E-02  0.000000E+00
  9.881230E-01  2.466334E-03  5.000000E-01  9.981019E-01  2.455823E-03  0.000000E+00  3.192019E-03 -6.322110E-04  4.229145E-17  8.770427E-03  0.000000E+00
  9.866580E-01  2.757626E-03  5.000000E-01  9.966221E-01  2.750056E-03  0.000000E+00  3.804313E-03 -7.634054E-04 -5.883749E-17  1.534751E-02  0.000000E+00
  9.847700E-01  3.131720E-03  5.000000E-01  9.947150E-01  3.127928E-03  0.000000E+00  3.973833E-03 -7.853399E-04 -3.513319E-17  1.387892E-02  0.000000E+00
  9.824550E-01  3.588303E-03  5.000000E-01  9.923766E-01  3.589122E-03  0.000000E+00  4.021465E-03 -7.898668E-04 -9.045502E-18  8.915573E-03  0.000000E+00
  9.797070E-01  4.126953E-03  5.000000E-01  9.896009E-01  4.133212E-03  0.000000E+00  4.092555E-03 -7.995848E-04  3.118741E-19  3.395102E-03  0.000000E+00
  9.765220E-01  4.747199E-03  5.000000E-01  9.863837E-01  4.759721E-03  0.000000E+00  4.201338E-03 -8.150024E-04  9.591309E-19 -3.019358E-03  0.000000E+00
  9.728930E-01  5.448473E-03  5.000000E-01  9.827181E-01  5.468078E-03  0.000000E+00  4.347805E-03 -8.364545E-04 -3.357686E-19 -1.043501E-02  0.000000E+00
  9.688130E-01  6.230104E-03  5.000000E-01  9.785969E-01  6.257602E-03  0.000000E+00  4.526847E-03 -8.629441E-04 -5.561991E-19 -1.869215E-02  0.000000E+00
  9.642740E-01  7.091358E-03  5.000000E-01  9.740120E-01  7.127554E-03  0.000000E+00  4.729443E-03 -8.925413E-04 -3.417126E-20 -2.763349E-02  0.000000E+00
  9.592670E-01  8.031410E-03  5.000000E-01  9.689545E-01  8.077099E-03  0.000000E+00  4.947489E-03 -9.236358E-04  3.928370E-19 -3.721385E-02  0.000000E+00
  9.537850E-01  9.049367E-03  5.000000E-01  9.634171E-01  9.105336E-03  0.000000E+00  5.175448E-03 -9.549970E-04  2.620183E-19 -4.730916E-02  0.000000E+00
  9.478160E-01  1.014420E-02  5.000000E-01  9.573878E-01  1.021123E-02  0.000000E+00  5.409228E-03 -9.857896E-04  1.153838E-18 -5.784757E-02  0.000000E+00
  9.413520E-01  1.131497E-02  5.000000E-01  9.508586E-01  1.139382E-02  0.000000E+00  5.646074E-03 -1.015511E-03  1.449377E-18 -6.876462E-02  0.000000E+00
  9.343800E-01  1.256062E-02  5.000000E-01  9.438161E-01  1.265205E-02  0.000000E+00  5.883725E-03 -1.043784E-03 -2.171355E-19 -7.997116E-02  0.000000E+00
  9.268920E-01  1.387994E-02  5.000000E-01  9.362525E-01  1.398469E-02  0.000000E+00  6.120238E-03 -1.070359E-03 -6.100373E-19 -9.143481E-02  0.000000E+00
  9.188750E-01  1.527202E-02  5.000000E-01  9.281546E-01  1.539083E-02  0.000000E+00  6.354039E-03 -1.095050E-03 -2.247743E-19 -1.030843E-01  0.000000E+00
  9.103190E-01  1.673583E-02  5.000000E-01  9.195122E-01  1.686942E-02  0.000000E+00  6.583678E-03 -1.117811E-03  3.576490E-19 -1.148962E-01  0.000000E+00
  9.012130E-01  1.827049E-02  5.000000E-01  9.103142E-01  1.841958E-02  0.000000E+00  6.808087E-03 -1.138595E-03  1.716329E-19 -1.268309E-01  0.000000E+00
  8.915460E-01  1.987514E-02  5.000000E-01  9.005496E-01  2.004044E-02  0.000000E+00  7.026584E-03 -1.157535E-03 -2.973944E-19 -1.388973E-01  0.000000E+00
  8.813080E-01  2.154924E-02  5.000000E-01  8.902082E-01  2.173144E-02  0.000000E+00  7.239236E-03 -1.174896E-03 -9.448204E-19 -1.511169E-01  0.000000E+00
  8.704900E-01  2.329213E-02  5.000000E-01  8.792809E-01  2.349194E-02  0.000000E+00  7.446787E-03 -1.190977E-03 -1.184654E-18 -1.635115E-01  0.000000E+00
  8.704900E-01  2.329213E-02  5.000000E-01  8.792809E-01  2.349194E-02  0.000000E+00  7.446787E-03 -1.190977E-03 -1.184654E-18 -1.635115E-01  0.000000E+00
  8.590830E-01  2.510340E-02  5.000000E-01  8.677587E-01  2.532150E-02  0.000000E+00  7.650853E-03 -1.206359E-03 -6.778453E-19 -1.761776E-01  0.000000E+00
  8.470810E-01  2.698287E-02  5.000000E-01  8.556355E-01  2.721994E-02  0.000000E+00  7.854535E-03 -1.221603E-03  5.984983E-19 -1.892650E-01  0.000000E+00
  8.344780E-01  2.892993E-02  5.000000E-01  8.429053E-01  2.918667E-02  0.000000E+00  8.062510E-03 -1.236996E-03  8.749504E-19 -2.029613E-01  0.000000E+00
  8.212700E-01  3.094258E-02  5.000000E-01  8.295639E-01  3.121965E-02  0.000000E+00  8.281298E-03 -1.252425E-03 -3.263844E-19 -2.175985E-01  0.000000E+00
  8.074550E-01  3.301604E-02  5.000000E-01  8.156094E-01  3.331405E-02  0.000000E+00  8.518833E-03 -1.266803E-03 -7.350057E-19 -2.334239E-01  0.000000E+00
  7.930350E-01  3.514061E-02  5.000000E-01  8.010437E-01  3.546007E-02  0.000000E+00  8.778789E-03 -1.276999E-03 -3.866140E-19 -2.498421E-01  0.000000E+00
  7.780130E-01  3.729891E-02  5.000000E-01  7.858700E-01  3.764017E-02  0.000000E+00  9.051689E-03 -1.278840E-03  4.663626E-19 -2.654954E-01  0.000000E+00
  7.623950E-01  3.946942E-02  5.000000E-01  7.700943E-01  3.983260E-02  0.000000E+00  9.316571E-03 -1.271672E-03  1.534325E-18 -2.799291E-01  0.000000E+00
  7.461930E-01  4.164159E-02  5.000000E-01  7.537287E-01  4.202671E-02  0.000000E+00  9.554154E-03 -1.257728E-03  2.017804E-18 -2.932512E-01  0.000000E+00
  7.294180E-01  4.381017E-02  5.000000E-01  7.367843E-01  4.421718E-02  0.000000E+00  9.751752E-03 -1.239194E-03  1.298220E-18 -3.051449E-01  0.000000E+00
  7.120900E-01  4.597507E-02  5.000000E-01  7.192813E-01  4.640395E-02  0.000000E+00  9.901416E-03 -1.219132E-03 -8.602845E-20 -3.154897E-01  0.000000E+00
  6.942280E-01  4.814320E-02  5.000000E-01  7.012389E-01  4.859397E-02  0.000000E+00  1.000369E-02 -1.202545E-03  8.221129E-19 -3.251153E-01  0.000000E+00
  6.758590E-01  5.032996E-02  5.000000E-01  6.826844E-01  5.080281E-02  0.000000E+00  1.007660E-02 -1.195835E-03  2.791177E-18 -3.364807E-01  0.000000E+00
  6.570120E-01  5.255818E-02  5.000000E-01  6.636471E-01  5.305354E-02  0.000000E+00  1.016013E-02 -1.201642E-03  2.463015E-18 -3.521006E-01  0.000000E+00
  6.377220E-01  5.483991E-02  5.000000E-01  6.441622E-01  5.535831E-02  0.000000E+00  1.029952E-02 -1.213419E-03  4.798747E-19 -3.717410E-01  0.000000E+00
  6.180260E-01  5.715154E-02  5.000000E-01  6.242673E-01  5.769329E-02  0.000000E+00  1.051941E-02 -1.222947E-03 -6.620789E-19 -3.943332E-01  0.000000E+00
  5.979670E-01  5.946114E-02  5.000000E-01  6.040058E-01  6.002621E-02  0.000000E+00  1.082194E-02 -1.226425E-03 -4.754306E-19 -4.196862E-01  0.000000E+00
  5.775910E-01  6.173376E-02  5.000000E-01  5.834240E-01  6.232178E-02  0.000000E+00  1.119498E-02 -1.219471E-03  1.208403E-19 -4.464945E-01  0.000000E+00
  5.569470E-01  6.393128E-02  5.000000E-01  5.625715E-01  6.454149E-02  0.000000E+00  1.160910E-02 -1.196162E-03  6.903117E-19 -4.721382E-01  0.000000E+00
  5.360860E-01  6.601299E-02  5.000000E-01  5.414998E-01  6.664423E-02  0.000000E+00  1.202179E-02 -1.156756E-03  3.841763E-19 -4.955173E-01  0.000000E+00
  5.150640E-01  6.796300E-02  5.000000E-01  5.202655E-01  6.861393E-02  0.000000E+00  1.239978E-02 -1.108484E-03  5.723008E-19 -5.176569E-01  0.000000E+00
  4.939370E-01  6.978251E-02  5.000000E-01  4.989252E-01  7.045182E-02  0.000000E+00  1.273412E-02 -1.056291E-03 -3.458354E-19 -5.393215E-01  0.000000E+00
  4.727610E-01  7.147370E-02  5.000000E-01  4.775353E-01  7.216008E-02  0.000000E+00  1.303421E-02 -1.002151E-03 -1.533449E-18 -5.613722E-01  0.000000E+00
  5.770140E-06 -7.711086E-05  5.000000E-01  5.829536E-06 -1.133081E-04  0.000000E+00  7.619986E-04 -2.795102E-03 -6.604573E-13  9.374223E-01  0.000000E+00
  9.104010E-05 -4.093922E-04  5.000000E-01  9.196062E-05 -4.489451E-04  0.000000E+00  1.274389E-02 -1.954194E-02 -5.750110E-13  1.000904E+00  0.000000E+00
  4.796980E-04 -9.266519E-04  5.000000E-01  4.845435E-04 -9.714285E-04  0.000000E+00  3.018948E-02 -2.652360E-02 -3.874197E-13  7.709155E-01  0.000000E+00
  1.456590E-03 -1.532106E-03  5.000000E-01  1.471301E-03 -1.582997E-03  0.000000E+00  3.685951E-02 -1.840129E-02 -1.898403E-13  4.563319E-01  0.000000E+00
  3.096410E-03 -2.128261E-03  5.000000E-01  3.127681E-03 -2.185172E-03  0.000000E+00  3.283545E-02 -1.031925E-02 -5.947713E-14  3.088236E-01  0.000000E+00
  5.335170E-03 -2.693253E-03  5.000000E-01  5.389050E-03 -2.755870E-03  0.000000E+00  2.759205E-02 -6.147135E-03 -2.983166E-15  2.585215E-01  0.000000E+00
  8.129670E-03 -3.220904E-03  5.000000E-01  8.211771E-03 -3.288849E-03  0.000000E+00  2.390539E-02 -3.986648E-03  9.784382E-15  2.160506E-01  0.000000E+00
  1.145600E-02 -3.692828E-03  5.000000E-01  1.157169E-02 -3.765540E-03  0.000000E+00  2.090789E-02 -2.465040E-03  6.980664E-15  1.662469E-01  0.000000E+00
  1.529970E-02 -4.040964E-03  5.000000E-01  1.545421E-02 -4.117192E-03  0.000000E+00  1.762316E-02 -1.116659E-03  2.643134E-15  1.151976E-01  0.000000E+00
  1.962420E-02 -4.169908E-03  5.000000E-01  1.982238E-02 -4.247438E-03  0.000000E+00  1.411323E-02 -1.624840E-04  4.106838E-16  9.341346E-02  0.000000E+00
  2.439810E-02 -4.099872E-03  5.000000E-01  2.464449E-02 -4.176694E-03  0.000000E+00  1.164560E-02  1.651423E-04 -1.884511E-16  1.336771E-01  0.000000E+00
  2.966100E-02 -4.024687E-03  5.000000E-01  2.996054E-02 -4.100750E-03  0.000000E+00  1.107768E-02  1.078158E-04 -1.689599E-16  1.890742E-01  0.000000E+00
  3.543640E-02 -4.008741E-03  5.000000E-01  3.579427E-02 -4.084643E-03  0.000000E+00  1.168825E-02 -3.574660E-06 -6.093592E-17  1.993174E-01  0.000000E+00
  4.172970E-02 -4.031650E-03  5.000000E-01  4.215112E-02 -4.107783E-03  0.000000E+00  1.236303E-02 -4.381260E-05 -4.626376E-18  1.784690E-01  0.000000E+00
  4.854440E-02 -4.052540E-03  5.000000E-01  4.903464E-02 -4.128884E-03  0.000000E+00  1.264222E-02  1.227155E-05  8.040946E-18  1.529539E-01  0.000000E+00
  5.588220E-02 -4.014227E-03  5.000000E-01  5.644655E-02 -4.090185E-03  0.000000E+00  1.257611E-02  1.243734E-04  5.694773E-18  1.344120E-01  0.000000E+00
  6.375220E-02 -3.897209E-03  5.000000E-01  6.439602E-02 -3.971985E-03  0.000000E+00  1.238751E-02  2.279621E-04  2.552233E-18  1.263121E-01  0.000000E+00
  7.217040E-02 -3.711392E-03  5.000000E-01  7.289924E-02 -3.784291E-03  0.000000E+00  1.225786E-02  2.970074E-04  1.296934E-18  1.242036E-01  0.000000E+00
  8.115500E-02 -3.474934E-03  5.000000E-01  8.197457E-02 -3.545445E-03  0.000000E+00  1.223249E-02  3.460057E-04  4.902412E-19  1.213688E-01  0.000000E+00
  9.072040E-02 -3.186914E-03  5.000000E-01  9.163657E-02 -3.254517E-03  0.000000E+00  1.225409E-02  3.993081E-04  3.495012E-19  1.145525E-01  0.000000E+00
  1.008780E-01 -2.830946E-03  5.000000E-01  1.018968E-01 -2.894953E-03  0.000000E+00  1.225456E-02  4.665005E-04  4.638723E-19  1.059360E-01  0.000000E+00
  1.116380E-01 -2.388242E-03  5.000000E-01  1.127654E-01 -2.447779E-03  0.000000E+00  1.219580E-02  5.478433E-04  6.968622E-19  9.817729E-02  0.000000E+00
  1.230100E-01 -1.834035E-03  5.000000E-01  1.242523E-01 -1.887975E-03  0.000000E+00  1.205113E-02  6.421581E-04  1.817197E-18  9.221570E-02  0.000000E+00
  1.350030E-01 -1.139567E-03  5.000000E-01  1.363664E-01 -1.186494E-03  0.000000E+00  1.179249E-02  7.454897E-04  1.077152E-18  8.890688E-02  0.000000E+00
  1.350030E-01 -1.139567E-03  5.000000E-01  1.363664E-01 -1.186494E-03  0.000000E+00  1.179249E-02  7.454897E-04  1.077152E-18  8.890688E-02  0.000000E+00
  1.476220E-01 -2.729532E-04  5.000000E-01  1.491128E-01 -3.111282E-04  0.000000E+00  1.139955E-02  8.507272E-04 -2.668119E-19  8.953175E-02  0.000000E+00
  1.608730E-01  7.983130E-04  5.000000E-01  1.624976E-01  7.709566E-04  0.000000E+00  1.087489E-02  9.480894E-04 -8.970508E-19  9.555845E-02  0.000000E+00
  1.747560E-01  2.101849E-03  5.000000E-01  1.765208E-01  2.087657E-03  0.000000E+00  1.025288E-02  1.025311E-03 -1.754933E-18  1.079693E-01  0.000000E+00
  1.892730E-01  3.647931E-03  5.000000E-01  1.911844E-01  3.649353E-03  0.000000E+00  9.598960E-03  1.066738E-03 -1.303117E-19  1.269655E-01  0.000000E+00
  2.044180E-01  5.408228E-03  5.000000E-01  2.064824E-01  5.427426E-03  0.000000E+00  9.007463E-03  1.057590E-03  1.981657E-18  1.533298E-01  0.000000E+00
  2.201880E-01  7.281676E-03  5.000000E-01  2.224116E-01  7.319794E-03  0.000000E+00  8.555208E-03  1.005854E-03  1.256132E-18  1.829325E-01  0.000000E+00
  2.365750E-01  9.183822E-03  5.000000E-01  2.389641E-01  9.241150E-03  0.000000E+00  8.242659E-03  9.381948E-04 -4.200349E-19  2.075262E-01  0.000000E+00
  2.535710E-01  1.107614E-02  5.000000E-01  2.561318E-01  1.115258E-02  0.000000E+00  8.024867E-03  8.689887E-04 -1.314669E-18  2.255755E-01  0.000000E+00
  2.711570E-01  1.292635E-02  5.000000E-01  2.738954E-01  1.302147E-02  0.000000E+00  7.873067E-03  7.993449E-04 -3.175420E-19  2.401645E-01  0.000000E+00
  2.893100E-01  1.470263E-02  5.000000E-01  2.922317E-01  1.481569E-02  0.000000E+00  7.782118E-03  7.284050E-04  6.938683E-19  2.527594E-01  0.000000E+00
  3.080020E-01  1.637203E-02  5.000000E-01  3.111125E-01  1.650195E-02  0.000000E+00  7.747970E-03  6.569890E-04  2.165025E-19  2.628439E-01  0.000000E+00
  3.271950E-01  1.791227E-02  5.000000E-01  3.304993E-01  1.805774E-02  0.000000E+00  7.756852E-03  5.870269E-04  1.049643E-18  2.699411E-01  0.000000E+00
  3.468470E-01  1.930971E-02  5.000000E-01  3.503498E-01  1.946929E-02  0.000000E+00  7.787548E-03  5.214710E-04  1.312387E-18  2.741950E-01  0.000000E+00
  3.669110E-01  2.056989E-02  5.000000E-01  3.706164E-01  2.074220E-02  0.000000E+00  7.815518E-03  4.635983E-04 -3.386434E-19  2.760347E-01  0.000000E+00
  3.873360E-01  2.171021E-02  5.000000E-01  3.912476E-01  2.189404E-02  0.000000E+00  7.819793E-03  4.143324E-04  3.431320E-19  2.766029E-01  0.000000E+00
  4.080670E-01  2.275005E-02  5.000000E-01  4.121880E-01  2.294438E-02  0.000000E+00  7.789035E-03  3.727668E-04  2.795132E-18  2.771642E-01  0.000000E+00
  4.290470E-01  2.370547E-02  5.000000E-01  4.333799E-01  2.390945E-02  0.000000E+00  7.721332E-03  3.377009E-04  4.090203E-18  2.781834E-01  0.000000E+00
  4.502140E-01  2.459241E-02  5.000000E-01  4.547606E-01  2.480535E-02  0.000000E+00  7.625558E-03  3.049692E-04  1.504789E-18  2.801738E-01  0.000000E+00
  4.715070E-01  2.540382E-02  5.000000E-01  4.762687E-01  2.562495E-02  0.000000E+00  7.524968E-03  2.674605E-04 -9.693739E-19  2.839449E-01  0.000000E+00
  4.928620E-01  2.610794E-02  5.000000E-01  4.978393E-01  2.633618E-02  0.000000E+00  7.448282E-03  2.213104E-04 -1.126992E-18  2.886974E-01  0.000000E+00
  5.142140E-01  2.667157E-02  5.000000E-01  5.194070E-01  2.690551E-02  0.000000E+00  7.416225E-03  1.658367E-04 -5.275124E-19  2.927911E-01  0.000000E+00
  5.355000E-01  2.706151E-02  5.000000E-01  5.409079E-01  2.729938E-02  0.000000E+00  7.438510E-03  1.008044E-04 -3.868733E-19  2.955034E-01  0.000000E+00
  5.566560E-01  2.724836E-02  5.000000E-01  5.622776E-01  2.748812E-02  0.000000E+00  7.512024E-03  2.996879E-05  1.781853E-19  2.961625E-01  0.000000E+00
  4.727610E-01  7.147370E-02  5.000000E-01  4.775353E-01  7.216008E-02  0.000000E+00  1.303421E-02 -1.002151E-03 -1.533449E-18 -5.613722E-01  0.000000E+00
  4.515970E-01  7.303891E-02  5.000000E-01  4.561576E-01  7.374110E-02  0.000000E+00  1.332255E-02 -9.475930E-04 -7.995251E-19 -5.853955E-01  0.000000E+00
  4.305020E-01  7.448036E-02  5.000000E-01  4.348496E-01  7.519711E-02  0.000000E+00  1.363027E-02 -8.906710E-04  1.296280E-20 -6.123924E-01  0.000000E+00
  4.095340E-01  7.578922E-02  5.000000E-01  4.136698E-01  7.651918E-02  0.000000E+00  1.398508E-02 -8.253403E-04  9.085924E-19 -6.423240E-01  0.000000E+00
  3.887520E-01  7.694653E-02  5.000000E-01  3.926779E-01  7.768818E-02  0.000000E+00  1.440247E-02 -7.457260E-04  1.891660E-18 -6.751155E-01  0.000000E+00
  3.682080E-01  7.793186E-02  5.000000E-01  3.719265E-01  7.868347E-02  0.000000E+00  1.488663E-02 -6.463118E-04  1.168792E-18 -7.103438E-01  0.000000E+00
  3.479570E-01  7.872203E-02  5.000000E-01  3.514710E-01  7.948161E-02  0.000000E+00  1.543035E-02 -5.208068E-04  7.285768E-19 -7.466340E-01  0.000000E+00
  3.280470E-01  7.929324E-02  5.000000E-01  3.313599E-01  8.005859E-02  0.000000E+00  1.601430E-02 -3.659845E-04  8.257752E-19 -7.827508E-01  0.000000E+00
  3.085240E-01  7.962970E-02  5.000000E-01  3.116397E-01  8.039845E-02  0.000000E+00  1.661639E-02 -1.839586E-04  1.684512E-19 -8.186718E-01  0.000000E+00
  2.894320E-01  7.972785E-02  5.000000E-01  2.923549E-01  8.049759E-02  0.000000E+00  1.722529E-02  2.402152E-05 -6.452289E-19 -8.550115E-01  0.000000E+00
  2.708110E-01  7.958484E-02  5.000000E-01  2.735459E-01  8.035314E-02  0.000000E+00  1.784770E-02  2.610998E-04 -1.110970E-18 -8.936549E-01  0.000000E+00
  2.526960E-01  7.919698E-02  5.000000E-01  2.552479E-01  7.996136E-02  0.000000E+00  1.851927E-02  5.344405E-04 -9.963487E-19 -9.385123E-01  0.000000E+00
  2.351200E-01  7.856157E-02  5.000000E-01  2.374944E-01  7.931953E-02  0.000000E+00  1.930373E-02  8.706566E-04 -2.447519E-18 -9.896239E-01  0.000000E+00
  2.181120E-01  7.764928E-02  5.000000E-01  2.203147E-01  7.839803E-02  0.000000E+00  2.023541E-02  1.315603E-03 -3.694529E-18 -1.039671E+00  0.000000E+00
  2.017010E-01  7.640566E-02  5.000000E-01  2.037379E-01  7.714185E-02  0.000000E+00  2.126645E-02  1.888099E-03 -2.484339E-18 -1.083587E+00  0.000000E+00
  1.859190E-01  7.480851E-02  5.000000E-01  1.877966E-01  7.552857E-02  0.000000E+00  2.231706E-02  2.577075E-03  1.826472E-21 -1.121088E+00  0.000000E+00
  1.707920E-01  7.285509E-02  5.000000E-01  1.725168E-01  7.355542E-02  0.000000E+00  2.333171E-02  3.382436E-03 -8.216151E-19 -1.149241E+00  0.000000E+00
  1.563470E-01  7.054196E-02  5.000000E-01  1.579259E-01  7.121894E-02  0.000000E+00  2.425824E-02  4.308336E-03 -2.695878E-18 -1.162606E+00  0.000000E+00
  1.426070E-01  6.787078E-02  5.000000E-01  1.440472E-01  6.852077E-02  0.000000E+00  2.502755E-02  5.335776E-03 -3.861419E-18 -1.156769E+00  0.000000E+00
  1.295900E-01  6.485819E-02  5.000000E-01  1.308987E-01  6.547776E-02  0.000000E+00  2.556797E-02  6.417715E-03 -7.191318E-18 -1.129941E+00  0.000000E+00
  1.173060E-01  6.153888E-02  5.000000E-01  1.184907E-01  6.212493E-02  0.000000E+00  2.583012E-02  7.496638E-03 -7.510140E-18 -1.082344E+00  0.000000E+00
  1.057600E-01  5.795862E-02  5.000000E-01  1.068281E-01  5.850851E-02  0.000000E+00  2.579801E-02  8.519783E-03 -4.241534E-18 -1.015550E+00  0.000000E+00
  9.495290E-02  5.417071E-02  5.000000E-01  9.591181E-02  5.468235E-02  0.000000E+00  2.549007E-02  9.442394E-03 -9.187387E-20 -9.328252E-01  0.000000E+00
  8.487680E-02  5.023424E-02  5.000000E-01  8.573396E-02  5.070613E-02  0.000000E+00  2.495300E-02  1.023633E-02  5.232890E-18 -8.372391E-01  0.000000E+00
  8.487680E-02  5.023424E-02  5.000000E-01  8.573396E-02  5.070613E-02  0.000000E+00  2.495300E-02  1.023633E-02  5.232890E-18 -8.372391E-01  0.000000E+00
  7.552090E-02  4.620955E-02  5.000000E-01  7.628357E-02  4.664080E-02  0.000000E+00  2.423117E-02  1.088479E-02  8.249500E-18 -7.298611E-01  0.000000E+00
  6.687020E-02  4.215479E-02  5.000000E-01  6.754551E-02  4.254509E-02  0.000000E+00  2.334534E-02  1.135206E-02  9.865155E-18 -6.134549E-01  0.000000E+00
  5.889940E-02  3.813398E-02  5.000000E-01  5.949422E-02  3.848367E-02  0.000000E+00  2.232905E-02  1.159824E-02  1.013497E-17 -4.954039E-01  0.000000E+00
  5.157140E-02  3.421261E-02  5.000000E-01  5.209221E-02  3.452270E-02  0.000000E+00  2.127579E-02  1.164657E-02  7.468165E-18 -3.843136E-01  0.000000E+00
  4.484650E-02  3.044448E-02  5.000000E-01  4.529940E-02  3.071652E-02  0.000000E+00  2.032953E-02  1.161656E-02  7.963235E-18 -2.847151E-01  0.000000E+00
  3.869820E-02  2.686023E-02  5.000000E-01  3.908901E-02  2.709607E-02  0.000000E+00  1.962960E-02  1.167540E-02  2.264537E-18 -1.957067E-01  0.000000E+00
  3.311550E-02  2.347130E-02  5.000000E-01  3.344993E-02  2.367291E-02  0.000000E+00  1.924060E-02  1.194305E-02 -1.866362E-17 -1.118354E-01  0.000000E+00
  2.809130E-02  2.028464E-02  5.000000E-01  2.837499E-02  2.045408E-02  0.000000E+00  1.901080E-02  1.237906E-02 -5.454447E-17 -1.706014E-02  0.000000E+00
  2.362330E-02  1.730365E-02  5.000000E-01  2.386187E-02  1.744298E-02  0.000000E+00  1.852454E-02  1.261405E-02 -1.147982E-16  9.919976E-02  0.000000E+00
  1.966610E-02  1.455284E-02  5.000000E-01  1.986471E-02  1.466439E-02  0.000000E+00  1.754179E-02  1.214488E-02 -1.821784E-16  2.100814E-01  0.000000E+00
  1.609460E-02  1.208780E-02  5.000000E-01  1.625714E-02  1.217445E-02  0.000000E+00  1.638140E-02  1.107046E-02 -8.410298E-17  2.868101E-01  0.000000E+00
  1.282740E-02  9.928633E-03  5.000000E-01  1.295694E-02  9.993482E-03  0.000000E+00  1.565109E-02  1.011973E-02  6.908260E-16  3.313057E-01  0.000000E+00
  9.860990E-03  8.054613E-03  5.000000E-01  9.960576E-03  8.100537E-03  0.000000E+00  1.580801E-02  9.956795E-03  2.928600E-15  3.618453E-01  0.000000E+00
  7.251350E-03  6.417229E-03  5.000000E-01  7.324581E-03  6.446617E-03  0.000000E+00  1.699112E-02  1.085613E-02  6.543253E-15  3.934915E-01  0.000000E+00
  5.038810E-03  4.981074E-03  5.000000E-01  5.089697E-03  4.995959E-03  0.000000E+00  1.917185E-02  1.293516E-02  7.324795E-15  4.287967E-01  0.000000E+00
  3.239710E-03  3.727757E-03  5.000000E-01  3.272428E-03  3.729984E-03  0.000000E+00  2.215981E-02  1.649495E-02 -7.899305E-15  4.739889E-01  0.000000E+00
  1.861880E-03  2.646900E-03  5.000000E-01  1.880684E-03  2.638213E-03  0.000000E+00  2.494882E-02  2.174492E-02 -6.291222E-14  5.463671E-01  0.000000E+00
  9.013910E-04  1.736636E-03  5.000000E-01  9.104951E-04  1.718755E-03  0.000000E+00  2.465021E-02  2.730507E-02 -1.811800E-13  6.729208E-01  0.000000E+00
  3.295630E-04  1.005039E-03  5.000000E-01  3.328923E-04  9.797701E-04  0.000000E+00  1.771374E-02  2.744885E-02 -3.583956E-13  8.519366E-01  0.000000E+00
  7.194000E-05  4.683356E-04  5.000000E-01  7.266763E-05  4.376467E-04  0.000000E+00  6.794670E-03  1.488530E-02 -5.378661E-13  9.761776E-01  0.000000E+00
  4.516100E-06  1.433719E-04  5.000000E-01  4.562831E-06  1.094013E-04  0.000000E+00  1.377574E-04 -2.163667E-03 -6.381815E-13  9.331590E-01  0.000000E+00
 -1.112850E-09  3.506440E-05  5.000000E-01  0.000000E+00  0.000000E+00  0.000000E+00 -1.251723E-03 -2.455075E-03 -6.640579E-13  8.531089E-01  0.000000E+00