 Title = "ADflow Slice Data"
Variables =  "CoordinateX"  "CoordinateY"  "CoordinateZ"  "XoC"  "YoC"  "ZoC" "VelocityX" "VelocityY" "VelocityZ" "CoefPressure" "Mach" 
Zone T= "Slice_0001 None Absolute Regular z = 0.50000000"
 Nodes =          192  Elements=          184  ZONETYPE=FELINESEG
 DATAPACKING=POINT
  5.566560E-01  2.995388E-02  5.000000E-01  5.622776E-01  3.019573E-02  0.000000E+00  7.408136E-03  2.057631E-05 -3.479836E-17  3.017625E-01  0.000000E+00
  5.776220E-01  2.993745E-02  5.000000E-01  5.834553E-01  3.017914E-02  0.000000E+00  7.436439E-03 -3.162573E-05 -3.828783E-17  3.007328E-01  0.000000E+00
  5.983370E-01  2.977769E-02  5.000000E-01  6.043795E-01  3.001777E-02  0.000000E+00  7.472801E-03 -8.257338E-05 -2.949845E-17  2.989652E-01  0.000000E+00
  6.187480E-01  2.948437E-02  5.000000E-01  6.249967E-01  2.972149E-02  0.000000E+00  7.514927E-03 -1.319828E-04 -3.251378E-17  2.966330E-01  0.000000E+00
  6.388030E-01  2.906852E-02  5.000000E-01  6.452542E-01  2.930144E-02  0.000000E+00  7.561056E-03 -1.798846E-04 -3.807641E-17  2.938953E-01  0.000000E+00
  6.584530E-01  2.854143E-02  5.000000E-01  6.651026E-01  2.876902E-02  0.000000E+00  7.609481E-03 -2.262456E-04 -4.143979E-17  2.908617E-01  0.000000E+00
  6.776550E-01  2.791491E-02  5.000000E-01  6.844985E-01  2.813618E-02  0.000000E+00  7.657368E-03 -2.706322E-04 -4.970410E-17  2.875109E-01  0.000000E+00
  6.963720E-01  2.720284E-02  5.000000E-01  7.034046E-01  2.741692E-02  0.000000E+00  7.701010E-03 -3.129440E-04 -5.230726E-17  2.839752E-01  0.000000E+00
  7.145680E-01  2.641656E-02  5.000000E-01  7.217843E-01  2.662269E-02  0.000000E+00  7.737046E-03 -3.534439E-04 -3.688286E-17  2.804425E-01  0.000000E+00
  7.322140E-01  2.556698E-02  5.000000E-01  7.396085E-01  2.576453E-02  0.000000E+00  7.763071E-03 -3.919577E-04 -1.264917E-17  2.769568E-01  0.000000E+00
  7.492860E-01  2.466521E-02  5.000000E-01  7.568529E-01  2.485366E-02  0.000000E+00  7.779549E-03 -4.280745E-04  1.135399E-17  2.736424E-01  0.000000E+00
  7.657630E-01  2.372218E-02  5.000000E-01  7.734963E-01  2.390110E-02  0.000000E+00  7.791085E-03 -4.620152E-04  2.921657E-17  2.703848E-01  0.000000E+00
  7.816300E-01  2.274800E-02  5.000000E-01  7.895236E-01  2.291709E-02  0.000000E+00  7.808581E-03 -4.986243E-04  3.773430E-17  2.672515E-01  0.000000E+00
  7.968740E-01  2.173834E-02  5.000000E-01  8.049215E-01  2.189723E-02  0.000000E+00  7.855954E-03 -5.490498E-04  3.930148E-17  2.652371E-01  0.000000E+00
  8.114890E-01  2.066458E-02  5.000000E-01  8.196841E-01  2.081262E-02  0.000000E+00  7.957339E-03 -6.170413E-04  3.737984E-17  2.631328E-01  0.000000E+00
  8.254710E-01  1.952309E-02  5.000000E-01  8.338073E-01  1.965960E-02  0.000000E+00  8.112315E-03 -6.941874E-04  3.169386E-17  2.583301E-01  0.000000E+00
  8.388180E-01  1.832900E-02  5.000000E-01  8.472891E-01  1.845346E-02  0.000000E+00  8.300796E-03 -7.714698E-04  2.326894E-17  2.507317E-01  0.000000E+00
  8.515320E-01  1.710436E-02  5.000000E-01  8.601315E-01  1.721645E-02  0.000000E+00  8.503457E-03 -8.436858E-04  1.602298E-17  2.415175E-01  0.000000E+00
  8.636180E-01  1.587125E-02  5.000000E-01  8.723396E-01  1.597089E-02  0.000000E+00  8.708703E-03 -9.087117E-04  1.057858E-17  2.315463E-01  0.000000E+00
  8.750810E-01  1.464921E-02  5.000000E-01  8.839183E-01  1.473651E-02  0.000000E+00  8.909709E-03 -9.660098E-04  8.830561E-18  2.212004E-01  0.000000E+00
  8.859290E-01  1.345380E-02  5.000000E-01  8.948759E-01  1.352903E-02  0.000000E+00  9.102223E-03 -1.015848E-03  7.412891E-18  2.107596E-01  0.000000E+00
  8.961710E-01  1.229665E-02  5.000000E-01  9.052213E-01  1.236019E-02  0.000000E+00  9.284260E-03 -1.058896E-03  3.839373E-18  2.004427E-01  0.000000E+00
  9.058170E-01  1.118637E-02  5.000000E-01  9.149647E-01  1.123870E-02  0.000000E+00  9.455520E-03 -1.095964E-03  1.524712E-18  1.903776E-01  0.000000E+00
  9.148770E-01  1.012908E-02  5.000000E-01  9.241162E-01  1.017073E-02  0.000000E+00  9.616427E-03 -1.127780E-03  6.474167E-19  1.806184E-01  0.000000E+00
  9.148770E-01  1.012908E-02  5.000000E-01  9.241162E-01  1.017073E-02  0.000000E+00  9.616427E-03 -1.127780E-03  6.474167E-19  1.806184E-01  0.000000E+00
  9.233640E-01  9.128934E-03  5.000000E-01  9.326889E-01  9.160483E-03  0.000000E+00  9.767838E-03 -1.155148E-03  5.860941E-19  1.712221E-01  0.000000E+00
  9.312880E-01  8.188605E-03  5.000000E-01  9.406930E-01  8.210658E-03  0.000000E+00  9.911145E-03 -1.178891E-03  5.726026E-19  1.622350E-01  0.000000E+00
  9.386620E-01  7.309487E-03  5.000000E-01  9.481414E-01  7.322662E-03  0.000000E+00  1.004785E-02 -1.199732E-03  9.933807E-19  1.536509E-01  0.000000E+00
  9.454960E-01  6.492250E-03  5.000000E-01  9.550444E-01  6.497172E-03  0.000000E+00  1.017901E-02 -1.218187E-03  4.022682E-18  1.454386E-01  0.000000E+00
  9.518040E-01  5.736763E-03  5.000000E-01  9.614161E-01  5.734055E-03  0.000000E+00  1.030583E-02 -1.234800E-03  1.093435E-17  1.376084E-01  0.000000E+00
  9.575950E-01  5.042634E-03  5.000000E-01  9.672656E-01  5.032916E-03  0.000000E+00  1.043048E-02 -1.250198E-03  2.240566E-17  1.301490E-01  0.000000E+00
  9.628810E-01  4.409065E-03  5.000000E-01  9.726050E-01  4.392949E-03  0.000000E+00  1.055681E-02 -1.265084E-03  4.035768E-17  1.230309E-01  0.000000E+00
  9.676710E-01  3.835150E-03  5.000000E-01  9.774434E-01  3.813238E-03  0.000000E+00  1.069154E-02 -1.280497E-03  7.404386E-17  1.162454E-01  0.000000E+00
  9.719750E-01  3.319864E-03  5.000000E-01  9.817908E-01  3.292748E-03  0.000000E+00  1.084347E-02 -1.297580E-03  1.606474E-16  1.097854E-01  0.000000E+00
  9.758020E-01  2.862133E-03  5.000000E-01  9.856565E-01  2.830394E-03  0.000000E+00  1.101629E-02 -1.316892E-03  3.775412E-16  1.036599E-01  0.000000E+00
  9.791590E-01  2.460970E-03  5.000000E-01  9.890474E-01  2.425180E-03  0.000000E+00  1.118852E-02 -1.336173E-03  8.111431E-16  9.773345E-02  0.000000E+00
  9.820540E-01  2.115390E-03  5.000000E-01  9.919716E-01  2.076111E-03  0.000000E+00  1.129427E-02 -1.348614E-03  1.249983E-15  9.234393E-02  0.000000E+00
  9.844930E-01  1.824540E-03  5.000000E-01  9.944353E-01  1.782323E-03  0.000000E+00  1.121117E-02 -1.336587E-03 -2.583790E-16  8.837297E-02  0.000000E+00
  9.864820E-01  1.587632E-03  5.000000E-01  9.964443E-01  1.543023E-03  0.000000E+00  1.063291E-02 -1.254991E-03 -8.594673E-15  8.220932E-02  0.000000E+00
  9.880240E-01  1.404066E-03  5.000000E-01  9.980019E-01  1.357603E-03  0.000000E+00  9.079798E-03 -1.088925E-03 -1.931403E-14  6.792564E-02  0.000000E+00
  9.891220E-01  1.273309E-03  5.000000E-01  9.991110E-01  1.225525E-03  0.000000E+00  8.343918E-03 -1.106663E-03  3.662061E-16  8.458964E-02  0.000000E+00
  9.897810E-01  1.194992E-03  5.000000E-01  9.997767E-01  1.146418E-03  0.000000E+00  1.563787E-02 -6.649355E-04  5.854089E-14  1.780957E-01  0.000000E+00
  9.900000E-01  1.168923E-03  5.000000E-01  9.999979E-01  1.120085E-03  0.000000E+00  1.309010E-02 -1.661315E-03  7.124198E-14 -6.190463E-02  0.000000E+00
  9.900000E-01  1.355144E-03  5.000000E-01  9.999979E-01  1.308187E-03  0.000000E+00  1.212004E-03 -1.360394E-02 -1.338721E-15 -2.045364E-01  0.000000E+00
  9.900000E-01  1.541355E-03  5.000000E-01  9.999979E-01  1.496278E-03  0.000000E+00 -7.382574E-04 -1.429389E-02 -8.134433E-14 -2.463055E-02  0.000000E+00
  9.900000E-01  1.727576E-03  5.000000E-01  9.999979E-01  1.684379E-03  0.000000E+00 -4.675722E-04  3.462549E-03 -8.527082E-14 -3.389831E-02  0.000000E+00
  9.900000E-01  1.913796E-03  5.000000E-01  9.999979E-01  1.872481E-03  0.000000E+00  8.128637E-04  3.548643E-03 -2.546813E-14 -1.578098E-01  0.000000E+00
  9.900000E-01  2.100017E-03  5.000000E-01  9.999979E-01  2.060582E-03  0.000000E+00  8.234200E-03 -4.608072E-03  7.983449E-15 -5.971491E-02  0.000000E+00
  9.900000E-01  2.100017E-03  5.000000E-01  9.999979E-01  2.060582E-03  0.000000E+00  8.234200E-03 -4.608072E-03  7.983449E-15 -5.971491E-02  0.000000E+00
  9.897920E-01  2.143405E-03  5.000000E-01  9.997878E-01  2.104408E-03  0.000000E+00  9.101042E-03 -2.732235E-03  9.185789E-15  8.422261E-02  0.000000E+00
  9.891660E-01  2.273477E-03  5.000000E-01  9.991555E-01  2.235794E-03  0.000000E+00  3.397484E-03 -6.166181E-04  5.533297E-15  1.255580E-02  0.000000E+00
  9.881230E-01  2.489977E-03  5.000000E-01  9.981019E-01  2.454480E-03  0.000000E+00  3.262903E-03 -6.721191E-04 -1.637018E-15  4.117796E-05  0.000000E+00
  9.866580E-01  2.792497E-03  5.000000E-01  9.966221E-01  2.760055E-03  0.000000E+00  3.866996E-03 -8.049092E-04 -1.678660E-15  6.438471E-03  0.000000E+00
  9.847700E-01  3.180428E-03  5.000000E-01  9.947151E-01  3.151904E-03  0.000000E+00  4.040703E-03 -8.272506E-04 -1.238069E-16  4.534758E-03  0.000000E+00
  9.824550E-01  3.653014E-03  5.000000E-01  9.923767E-01  3.629263E-03  0.000000E+00  4.103954E-03 -8.334162E-04  2.644095E-16 -8.864011E-04  0.000000E+00
  9.797070E-01  4.209306E-03  5.000000E-01  9.896009E-01  4.191173E-03  0.000000E+00  4.197014E-03 -8.457234E-04  2.179434E-16 -6.900637E-03  0.000000E+00
  9.765220E-01  4.848191E-03  5.000000E-01  9.863838E-01  4.836509E-03  0.000000E+00  4.331400E-03 -8.641573E-04  1.332029E-16 -1.385801E-02  0.000000E+00
  9.728930E-01  5.568387E-03  5.000000E-01  9.827181E-01  5.563979E-03  0.000000E+00  4.505787E-03 -8.887075E-04  6.733090E-17 -2.183783E-02  0.000000E+00
  9.688130E-01  6.368424E-03  5.000000E-01  9.785969E-01  6.372095E-03  0.000000E+00  4.713955E-03 -9.180260E-04  2.879967E-17 -3.064876E-02  0.000000E+00
  9.642740E-01  7.246694E-03  5.000000E-01  9.740121E-01  7.259235E-03  0.000000E+00  4.945919E-03 -9.498615E-04  1.112477E-17 -4.010606E-02  0.000000E+00
  9.592670E-01  8.201443E-03  5.000000E-01  9.689545E-01  8.223625E-03  0.000000E+00  5.192732E-03 -9.823598E-04  4.866611E-18 -5.013205E-02  0.000000E+00
  9.537850E-01  9.230769E-03  5.000000E-01  9.634171E-01  9.263347E-03  0.000000E+00  5.448015E-03 -1.014094E-03  2.474391E-18 -6.056738E-02  0.000000E+00
  9.478160E-01  1.033266E-02  5.000000E-01  9.573879E-01  1.037637E-02  0.000000E+00  5.706761E-03 -1.044064E-03  1.279354E-18 -7.130291E-02  0.000000E+00
  9.413520E-01  1.150512E-02  5.000000E-01  9.508586E-01  1.156066E-02  0.000000E+00  5.965197E-03 -1.071643E-03  1.768975E-18 -8.223460E-02  0.000000E+00
  9.343800E-01  1.274613E-02  5.000000E-01  9.438162E-01  1.281421E-02  0.000000E+00  6.219971E-03 -1.096360E-03  1.485755E-18 -9.323441E-02  0.000000E+00
  9.268920E-01  1.405354E-02  5.000000E-01  9.362526E-01  1.413482E-02  0.000000E+00  6.468037E-03 -1.117923E-03  3.173438E-19 -1.042365E-01  0.000000E+00
  9.188750E-01  1.542563E-02  5.000000E-01  9.281546E-01  1.552077E-02  0.000000E+00  6.706724E-03 -1.136169E-03  7.780503E-19 -1.151322E-01  0.000000E+00
  9.103190E-01  1.686072E-02  5.000000E-01  9.195122E-01  1.697035E-02  0.000000E+00  6.933423E-03 -1.151123E-03  8.687074E-19 -1.258630E-01  0.000000E+00
  9.012130E-01  1.835755E-02  5.000000E-01  9.103142E-01  1.848230E-02  0.000000E+00  7.145908E-03 -1.162866E-03  1.641139E-19 -1.363678E-01  0.000000E+00
  8.915460E-01  1.991523E-02  5.000000E-01  9.005496E-01  2.005570E-02  0.000000E+00  7.342389E-03 -1.171732E-03 -5.569750E-19 -1.466362E-01  0.000000E+00
  8.813080E-01  2.153360E-02  5.000000E-01  8.902082E-01  2.169043E-02  0.000000E+00  7.521816E-03 -1.178245E-03 -2.061981E-18 -1.566775E-01  0.000000E+00
  8.704900E-01  2.321306E-02  5.000000E-01  8.792810E-01  2.338685E-02  0.000000E+00  7.683862E-03 -1.183040E-03 -2.253716E-18 -1.665207E-01  0.000000E+00
  8.704900E-01  2.321306E-02  5.000000E-01  8.792810E-01  2.338685E-02  0.000000E+00  7.683862E-03 -1.183040E-03 -2.253716E-18 -1.665207E-01  0.000000E+00
  8.590830E-01  2.495501E-02  5.000000E-01  8.677588E-01  2.514638E-02  0.000000E+00  7.829277E-03 -1.187109E-03 -1.562344E-18 -1.762888E-01  0.000000E+00
  8.470810E-01  2.676201E-02  5.000000E-01  8.556356E-01  2.697163E-02  0.000000E+00  7.960653E-03 -1.191561E-03 -2.797381E-18 -1.861741E-01  0.000000E+00
  8.344780E-01  2.863761E-02  5.000000E-01  8.429053E-01  2.886618E-02  0.000000E+00  8.082555E-03 -1.197445E-03 -4.817357E-18 -1.964063E-01  0.000000E+00
  8.212700E-01  3.058570E-02  5.000000E-01  8.295639E-01  3.083394E-02  0.000000E+00  8.201917E-03 -1.205712E-03 -7.042135E-18 -2.073842E-01  0.000000E+00
  8.074550E-01  3.260967E-02  5.000000E-01  8.156094E-01  3.287835E-02  0.000000E+00  8.328879E-03 -1.216933E-03 -9.953352E-18 -2.196247E-01  0.000000E+00
  7.930350E-01  3.471062E-02  5.000000E-01  8.010438E-01  3.500052E-02  0.000000E+00  8.474625E-03 -1.230459E-03 -1.202526E-17 -2.332858E-01  0.000000E+00
  7.780130E-01  3.688434E-02  5.000000E-01  7.858700E-01  3.719619E-02  0.000000E+00  8.645434E-03 -1.244314E-03 -8.443047E-18 -2.479490E-01  0.000000E+00
  7.623950E-01  3.912042E-02  5.000000E-01  7.700943E-01  3.945485E-02  0.000000E+00  8.840309E-03 -1.257270E-03  7.244297E-20 -2.634305E-01  0.000000E+00
  7.461930E-01  4.140942E-02  5.000000E-01  7.537287E-01  4.176697E-02  0.000000E+00  9.055700E-03 -1.269028E-03  1.076228E-17 -2.798095E-01  0.000000E+00
  7.294180E-01  4.374142E-02  5.000000E-01  7.367843E-01  4.412252E-02  0.000000E+00  9.288293E-03 -1.278970E-03  2.448120E-17 -2.969661E-01  0.000000E+00
  7.120900E-01  4.610510E-02  5.000000E-01  7.192813E-01  4.651007E-02  0.000000E+00  9.534539E-03 -1.286115E-03  3.814170E-17 -3.147554E-01  0.000000E+00
  6.942280E-01  4.848804E-02  5.000000E-01  7.012389E-01  4.891707E-02  0.000000E+00  9.790923E-03 -1.289655E-03  4.353840E-17 -3.330519E-01  0.000000E+00
  6.758590E-01  5.087733E-02  5.000000E-01  6.826844E-01  5.133049E-02  0.000000E+00  1.005424E-02 -1.289218E-03  3.553325E-17 -3.517452E-01  0.000000E+00
  6.570120E-01  5.326011E-02  5.000000E-01  6.636471E-01  5.373733E-02  0.000000E+00  1.032186E-02 -1.284681E-03  2.375811E-17 -3.707663E-01  0.000000E+00
  6.377220E-01  5.562401E-02  5.000000E-01  6.441623E-01  5.612510E-02  0.000000E+00  1.059220E-02 -1.276291E-03  1.384094E-17 -3.901672E-01  0.000000E+00
  6.180260E-01  5.795781E-02  5.000000E-01  6.242674E-01  5.848248E-02  0.000000E+00  1.086550E-02 -1.264296E-03  1.950694E-18 -4.100693E-01  0.000000E+00
  5.979670E-01  6.025004E-02  5.000000E-01  6.040058E-01  6.079786E-02  0.000000E+00  1.114399E-02 -1.248713E-03 -5.592870E-18 -4.306852E-01  0.000000E+00
  5.775910E-01  6.248885E-02  5.000000E-01  5.834240E-01  6.305928E-02  0.000000E+00  1.143154E-02 -1.229255E-03 -1.857455E-18 -4.522177E-01  0.000000E+00
  5.569470E-01  6.466147E-02  5.000000E-01  5.625715E-01  6.525384E-02  0.000000E+00  1.173203E-02 -1.204850E-03  9.941362E-18 -4.745866E-01  0.000000E+00
  5.360860E-01  6.675210E-02  5.000000E-01  5.414999E-01  6.736558E-02  0.000000E+00  1.204693E-02 -1.174326E-03  1.900171E-17 -4.976651E-01  0.000000E+00
  5.150640E-01  6.874515E-02  5.000000E-01  5.202656E-01  6.937875E-02  0.000000E+00  1.237576E-02 -1.137079E-03  1.212218E-17 -5.214855E-01  0.000000E+00
  4.939370E-01  7.062595E-02  5.000000E-01  4.989252E-01  7.127855E-02  0.000000E+00  1.271770E-02 -1.092517E-03 -9.352679E-18 -5.460524E-01  0.000000E+00
  4.727610E-01  7.238068E-02  5.000000E-01  4.775354E-01  7.305100E-02  0.000000E+00  1.307198E-02 -1.039960E-03 -1.031195E-17 -5.713503E-01  0.000000E+00
  5.770140E-06 -5.188397E-05  5.000000E-01  5.829536E-06 -1.130507E-04  0.000000E+00  3.752735E-03 -2.179766E-02 -1.491053E-13  9.104423E-01  0.000000E+00
  9.104010E-05 -3.816592E-04  5.000000E-01  9.196063E-05 -4.461562E-04  0.000000E+00  1.999823E-02 -3.479662E-02  1.997698E-13  9.169075E-01  0.000000E+00
  4.796980E-04 -8.882121E-04  5.000000E-01  4.845435E-04 -9.578248E-04  0.000000E+00  3.856716E-02 -3.412589E-02  2.366686E-13  6.046912E-01  0.000000E+00
  1.456590E-03 -1.466546E-03  5.000000E-01  1.471301E-03 -1.541999E-03  0.000000E+00  4.178978E-02 -1.998539E-02  6.807872E-14  2.725534E-01  0.000000E+00
  3.096410E-03 -2.015903E-03  5.000000E-01  3.127681E-03 -2.096904E-03  0.000000E+00  3.422980E-02 -9.818557E-03  1.914259E-14  1.587132E-01  0.000000E+00
  5.335170E-03 -2.514990E-03  5.000000E-01  5.389050E-03 -2.601031E-03  0.000000E+00  2.736087E-02 -5.287162E-03  5.611749E-14  1.419605E-01  0.000000E+00
  8.129670E-03 -2.958134E-03  5.000000E-01  8.211772E-03 -3.048651E-03  0.000000E+00  2.316196E-02 -3.158582E-03  3.862490E-14  1.204784E-01  0.000000E+00
  1.145600E-02 -3.327576E-03  5.000000E-01  1.157169E-02 -3.421823E-03  0.000000E+00  1.998319E-02 -1.742741E-03  4.458964E-15  8.458753E-02  0.000000E+00
  1.529970E-02 -3.556822E-03  5.000000E-01  1.545421E-02 -3.653384E-03  0.000000E+00  1.658533E-02 -5.466741E-04 -6.918262E-15  4.630489E-02  0.000000E+00
  1.962420E-02 -3.554096E-03  5.000000E-01  1.982238E-02 -3.650631E-03  0.000000E+00  1.304600E-02  2.391461E-04 -3.947542E-15  3.834530E-02  0.000000E+00
  2.439810E-02 -3.342286E-03  5.000000E-01  2.464449E-02 -3.436682E-03  0.000000E+00  1.066048E-02  4.665446E-04  4.319731E-16  9.147105E-02  0.000000E+00
  2.966100E-02 -3.112554E-03  5.000000E-01  2.996054E-02 -3.204630E-03  0.000000E+00  1.023313E-02  3.997254E-04  2.411394E-15  1.569085E-01  0.000000E+00
  3.543640E-02 -2.928406E-03  5.000000E-01  3.579427E-02 -3.018622E-03  0.000000E+00  1.097381E-02  3.136899E-04  2.585821E-15  1.751163E-01  0.000000E+00
  4.172970E-02 -2.770808E-03  5.000000E-01  4.215112E-02 -2.859433E-03  0.000000E+00  1.173467E-02  2.903940E-04  2.037099E-15  1.612682E-01  0.000000E+00
  4.854440E-02 -2.601263E-03  5.000000E-01  4.903464E-02 -2.688175E-03  0.000000E+00  1.205654E-02  3.418939E-04  1.353539E-15  1.425316E-01  0.000000E+00
  5.588220E-02 -2.366018E-03  5.000000E-01  5.644655E-02 -2.450555E-03  0.000000E+00  1.200475E-02  4.328274E-04  7.944185E-16  1.305834E-01  0.000000E+00
  6.375220E-02 -2.048473E-03  5.000000E-01  6.439603E-02 -2.129803E-03  0.000000E+00  1.181377E-02  5.095653E-04  4.292849E-16  1.285334E-01  0.000000E+00
  7.217040E-02 -1.660931E-03  5.000000E-01  7.289924E-02 -1.738347E-03  0.000000E+00  1.167001E-02  5.527810E-04  2.245739E-16  1.318389E-01  0.000000E+00
  8.115500E-02 -1.224102E-03  5.000000E-01  8.197457E-02 -1.297107E-03  0.000000E+00  1.162307E-02  5.770349E-04  1.177403E-16  1.339891E-01  0.000000E+00
  9.072040E-02 -7.407742E-04  5.000000E-01  9.163657E-02 -8.088979E-04  0.000000E+00  1.162284E-02  6.034206E-04  5.958567E-17  1.319123E-01  0.000000E+00
  1.008780E-01 -1.994531E-04  5.000000E-01  1.018968E-01 -2.621101E-04  0.000000E+00  1.160975E-02  6.394198E-04  2.640222E-17  1.276854E-01  0.000000E+00
  1.116380E-01  4.129131E-04  5.000000E-01  1.127654E-01  3.564403E-04  0.000000E+00  1.155398E-02  6.850124E-04  8.246811E-18  1.237363E-01  0.000000E+00
  1.230100E-01  1.114422E-03  5.000000E-01  1.242523E-01  1.065033E-03  0.000000E+00  1.143709E-02  7.397404E-04 -1.186919E-17  1.207798E-01  0.000000E+00
  1.350030E-01  1.926395E-03  5.000000E-01  1.363664E-01  1.885207E-03  0.000000E+00  1.123833E-02  8.014733E-04 -3.180185E-17  1.194035E-01  0.000000E+00
  1.350030E-01  1.926395E-03  5.000000E-01  1.363664E-01  1.885207E-03  0.000000E+00  1.123833E-02  8.014733E-04 -3.180185E-17  1.194035E-01  0.000000E+00
  1.476220E-01  2.872886E-03  5.000000E-01  1.491128E-01  2.841256E-03  0.000000E+00  1.094064E-02  8.661999E-04 -3.592344E-17  1.205578E-01  0.000000E+00
  1.608730E-01  3.979158E-03  5.000000E-01  1.624976E-01  3.958700E-03  0.000000E+00  1.054202E-02  9.282734E-04 -2.233447E-17  1.253828E-01  0.000000E+00
  1.747560E-01  5.268032E-03  5.000000E-01  1.765208E-01  5.260591E-03  0.000000E+00  1.006277E-02  9.799609E-04 -8.796450E-18  1.347257E-01  0.000000E+00
  1.892730E-01  6.750978E-03  5.000000E-01  1.911844E-01  6.758512E-03  0.000000E+00  9.546249E-03  1.009722E-03 -1.240041E-17  1.488909E-01  0.000000E+00
  2.044180E-01  8.412340E-03  5.000000E-01  2.064824E-01  8.436652E-03  0.000000E+00  9.060330E-03  1.004020E-03 -2.586719E-17  1.688155E-01  0.000000E+00
  2.201880E-01  1.018012E-02  5.000000E-01  2.224116E-01  1.022228E-02  0.000000E+00  8.665907E-03  9.650092E-04 -3.598732E-17  1.919368E-01  0.000000E+00
  2.365750E-01  1.199002E-02  5.000000E-01  2.389641E-01  1.205046E-02  0.000000E+00  8.370545E-03  9.109231E-04 -3.162157E-17  2.122202E-01  0.000000E+00
  2.535710E-01  1.380918E-02  5.000000E-01  2.561318E-01  1.388799E-02  0.000000E+00  8.144883E-03  8.532631E-04 -1.740201E-17  2.280636E-01  0.000000E+00
  2.711570E-01  1.561084E-02  5.000000E-01  2.738954E-01  1.570785E-02  0.000000E+00  7.966588E-03  7.938339E-04 -5.559021E-18  2.414021E-01  0.000000E+00
  2.893100E-01  1.736861E-02  5.000000E-01  2.922317E-01  1.748337E-02  0.000000E+00  7.829764E-03  7.323417E-04  7.366805E-19  2.534145E-01  0.000000E+00
  3.080020E-01  1.905435E-02  5.000000E-01  3.111125E-01  1.918613E-02  0.000000E+00  7.730629E-03  6.699527E-04  4.729157E-18  2.637666E-01  0.000000E+00
  3.271950E-01  2.064880E-02  5.000000E-01  3.304993E-01  2.079668E-02  0.000000E+00  7.659995E-03  6.083745E-04  5.683533E-18  2.720535E-01  0.000000E+00
  3.468470E-01  2.213720E-02  5.000000E-01  3.503498E-01  2.230012E-02  0.000000E+00  7.607363E-03  5.485902E-04  2.214860E-18  2.785972E-01  0.000000E+00
  3.669110E-01  2.351083E-02  5.000000E-01  3.706164E-01  2.368762E-02  0.000000E+00  7.564206E-03  4.915394E-04  7.495247E-19  2.837343E-01  0.000000E+00
  3.873360E-01  2.476649E-02  5.000000E-01  3.912477E-01  2.495597E-02  0.000000E+00  7.524866E-03  4.372582E-04  5.089602E-18  2.878251E-01  0.000000E+00
  4.080670E-01  2.590111E-02  5.000000E-01  4.121880E-01  2.610204E-02  0.000000E+00  7.487812E-03  3.844796E-04  1.461344E-17  2.913598E-01  0.000000E+00
  4.290470E-01  2.690725E-02  5.000000E-01  4.333799E-01  2.711834E-02  0.000000E+00  7.454525E-03  3.321356E-04  2.635975E-17  2.945212E-01  0.000000E+00
  4.502140E-01  2.777794E-02  5.000000E-01  4.547607E-01  2.799782E-02  0.000000E+00  7.426532E-03  2.801267E-04  3.310374E-17  2.971474E-01  0.000000E+00
  4.715070E-01  2.850802E-02  5.000000E-01  4.762687E-01  2.873528E-02  0.000000E+00  7.404635E-03  2.285747E-04  2.862937E-17  2.991535E-01  0.000000E+00
  4.928620E-01  2.909399E-02  5.000000E-01  4.978393E-01  2.932717E-02  0.000000E+00  7.389947E-03  1.772780E-04  1.841050E-17  3.005945E-01  0.000000E+00
  5.142140E-01  2.953249E-02  5.000000E-01  5.194070E-01  2.977009E-02  0.000000E+00  7.384501E-03  1.256363E-04  9.699645E-18  3.015573E-01  0.000000E+00
  5.355000E-01  2.981969E-02  5.000000E-01  5.409079E-01  3.006019E-02  0.000000E+00  7.390362E-03  7.328442E-05 -9.041047E-18  3.019987E-01  0.000000E+00
  5.566560E-01  2.995388E-02  5.000000E-01  5.622776E-01  3.019573E-02  0.000000E+00  7.408136E-03  2.057631E-05 -3.479836E-17  3.017625E-01  0.000000E+00
  4.727610E-01  7.238068E-02  5.000000E-01  4.775354E-01  7.305100E-02  0.000000E+00  1.307198E-02 -1.039960E-03 -1.031195E-17 -5.713503E-01  0.000000E+00
  4.515970E-01  7.399624E-02  5.000000E-01  4.561576E-01  7.468288E-02  0.000000E+00  1.343794E-02 -9.786750E-04  5.752310E-18 -5.973148E-01  0.000000E+00
  4.305020E-01  7.546070E-02  5.000000E-01  4.348496E-01  7.616212E-02  0.000000E+00  1.381520E-02 -9.080800E-04  9.186597E-18 -6.240033E-01  0.000000E+00
  4.095340E-01  7.676354E-02  5.000000E-01  4.136698E-01  7.747812E-02  0.000000E+00  1.420551E-02 -8.281160E-04  8.319590E-18 -6.519465E-01  0.000000E+00
  3.887520E-01  7.789709E-02  5.000000E-01  3.926780E-01  7.862312E-02  0.000000E+00  1.461545E-02 -7.375970E-04  7.652212E-18 -6.817501E-01  0.000000E+00
  3.682080E-01  7.885216E-02  5.000000E-01  3.719265E-01  7.958784E-02  0.000000E+00  1.505435E-02 -6.327911E-04 -1.488077E-18 -7.134753E-01  0.000000E+00
  3.479570E-01  7.961574E-02  5.000000E-01  3.514710E-01  8.035913E-02  0.000000E+00  1.552829E-02 -5.088744E-04 -2.968562E-17 -7.467088E-01  0.000000E+00
  3.280470E-01  8.017294E-02  5.000000E-01  3.313599E-01  8.092196E-02  0.000000E+00  1.603741E-02 -3.626983E-04 -7.342350E-17 -7.811429E-01  0.000000E+00
  3.085240E-01  8.051288E-02  5.000000E-01  3.116397E-01  8.126533E-02  0.000000E+00  1.657913E-02 -1.928248E-04 -1.203892E-16 -8.167263E-01  0.000000E+00
  2.894320E-01  8.062848E-02  5.000000E-01  2.923549E-01  8.138209E-02  0.000000E+00  1.715221E-02  3.575700E-06 -1.663472E-16 -8.535275E-01  0.000000E+00
  2.708110E-01  8.051237E-02  5.000000E-01  2.735459E-01  8.126481E-02  0.000000E+00  1.776212E-02  2.310774E-04 -2.006735E-16 -8.930356E-01  0.000000E+00
  2.526960E-01  8.015714E-02  5.000000E-01  2.552479E-01  8.090599E-02  0.000000E+00  1.843707E-02  4.969249E-04 -2.018828E-16 -9.389348E-01  0.000000E+00
  2.351200E-01  7.955723E-02  5.000000E-01  2.374944E-01  8.030003E-02  0.000000E+00  1.923409E-02  8.268194E-04 -1.399515E-16 -9.918330E-01  0.000000E+00
  2.181120E-01  7.868213E-02  5.000000E-01  2.203147E-01  7.941608E-02  0.000000E+00  2.019137E-02  1.266697E-03 -2.385415E-17 -1.045613E+00  0.000000E+00
  2.017010E-01  7.747725E-02  5.000000E-01  2.037380E-01  7.819904E-02  0.000000E+00  2.127528E-02  1.844134E-03  7.213101E-17 -1.094555E+00  0.000000E+00
  1.859190E-01  7.591036E-02  5.000000E-01  1.877966E-01  7.661632E-02  0.000000E+00  2.240782E-02  2.559827E-03  1.054343E-16 -1.135796E+00  0.000000E+00
  1.707920E-01  7.396701E-02  5.000000E-01  1.725168E-01  7.465335E-02  0.000000E+00  2.350970E-02  3.411456E-03  8.177001E-17 -1.165041E+00  0.000000E+00
  1.563470E-01  7.164160E-02  5.000000E-01  1.579259E-01  7.230446E-02  0.000000E+00  2.449881E-02  4.389954E-03  2.172672E-17 -1.176953E+00  0.000000E+00
  1.426070E-01  6.893924E-02  5.000000E-01  1.440472E-01  6.957480E-02  0.000000E+00  2.528832E-02  5.463532E-03 -4.287765E-17 -1.167626E+00  0.000000E+00
  1.295900E-01  6.588202E-02  5.000000E-01  1.308987E-01  6.648671E-02  0.000000E+00  2.580460E-02  6.576326E-03 -8.662283E-17 -1.136068E+00  0.000000E+00
  1.173060E-01  6.250998E-02  5.000000E-01  1.184907E-01  6.308062E-02  0.000000E+00  2.600908E-02  7.667162E-03 -1.000970E-16 -1.083329E+00  0.000000E+00
  1.057600E-01  5.887335E-02  5.000000E-01  1.068281E-01  5.940727E-02  0.000000E+00  2.590230E-02  8.684578E-03 -5.911948E-17 -1.011633E+00  0.000000E+00
  9.495290E-02  5.502875E-02  5.000000E-01  9.591182E-02  5.552384E-02  0.000000E+00  2.551814E-02  9.588590E-03  7.038486E-17 -9.246387E-01  0.000000E+00
  8.487680E-02  5.103730E-02  5.000000E-01  8.573396E-02  5.149207E-02  0.000000E+00  2.491404E-02  1.035713E-02  1.589469E-16 -8.256092E-01  0.000000E+00
  8.487680E-02  5.103730E-02  5.000000E-01  8.573396E-02  5.149207E-02  0.000000E+00  2.491404E-02  1.035713E-02  1.589469E-16 -8.256092E-01  0.000000E+00
  7.552090E-02  4.696045E-02  5.000000E-01  7.628358E-02  4.737406E-02  0.000000E+00  2.414068E-02  1.097931E-02  1.888976E-16 -7.157063E-01  0.000000E+00
  6.687020E-02  4.285670E-02  5.000000E-01  6.754551E-02  4.322886E-02  0.000000E+00  2.322228E-02  1.142522E-02  2.571126E-16 -5.975931E-01  0.000000E+00
  5.889940E-02  3.878953E-02  5.000000E-01  5.949422E-02  3.912061E-02  0.000000E+00  2.219265E-02  1.165975E-02  3.161498E-16 -4.783012E-01  0.000000E+00
  5.157140E-02  3.482329E-02  5.000000E-01  5.209221E-02  3.511432E-02  0.000000E+00  2.114120E-02  1.170748E-02  3.421613E-16 -3.659950E-01  0.000000E+00
  4.484650E-02  3.101068E-02  5.000000E-01  4.529940E-02  3.126321E-02  0.000000E+00  2.020426E-02  1.168485E-02  3.419145E-16 -2.648966E-01  0.000000E+00
  3.869820E-02  2.738195E-02  5.000000E-01  3.908901E-02  2.759783E-02  0.000000E+00  1.951256E-02  1.175359E-02  3.176273E-16 -1.740190E-01  0.000000E+00
  3.311550E-02  2.394885E-02  5.000000E-01  3.344993E-02  2.413006E-02  0.000000E+00  1.912534E-02  1.202979E-02  2.818284E-16 -8.810410E-02  0.000000E+00
  2.809130E-02  2.071873E-02  5.000000E-01  2.837499E-02  2.086732E-02  0.000000E+00  1.889788E-02  1.247622E-02  2.402465E-16  8.194933E-03  0.000000E+00
  2.362330E-02  1.769555E-02  5.000000E-01  2.386187E-02  1.781361E-02  0.000000E+00  1.844021E-02  1.274042E-02  1.091708E-16  1.250011E-01  0.000000E+00
  1.966610E-02  1.490326E-02  5.000000E-01  1.986471E-02  1.499312E-02  0.000000E+00  1.753878E-02  1.234057E-02 -2.566000E-16  2.365532E-01  0.000000E+00
  1.609460E-02  1.239501E-02  5.000000E-01  1.625714E-02  1.245954E-02  0.000000E+00  1.651134E-02  1.137250E-02 -8.695203E-16  3.156446E-01  0.000000E+00
  1.282740E-02  1.019012E-02  5.000000E-01  1.295694E-02  1.023238E-02  0.000000E+00  1.593138E-02  1.053716E-02 -1.096630E-15  3.648407E-01  0.000000E+00
  9.860990E-03  8.269316E-03  5.000000E-01  9.960576E-03  8.292184E-03  0.000000E+00  1.620306E-02  1.047320E-02  8.986895E-16  4.021653E-01  0.000000E+00
  7.251350E-03  6.586997E-03  5.000000E-01  7.324582E-03  6.592876E-03  0.000000E+00  1.740989E-02  1.143475E-02  6.666320E-15  4.421781E-01  0.000000E+00
  5.038810E-03  5.110010E-03  5.000000E-01  5.089697E-03  5.100972E-03  0.000000E+00  1.944834E-02  1.348985E-02  1.085766E-14  4.875327E-01  0.000000E+00
  3.239710E-03  3.821462E-03  5.000000E-01  3.272429E-03  3.799412E-03  0.000000E+00  2.197441E-02  1.678710E-02 -6.437954E-15  5.449061E-01  0.000000E+00
  1.861880E-03  2.712213E-03  5.000000E-01  1.880684E-03  2.678961E-03  0.000000E+00  2.372872E-02  2.113091E-02 -6.980258E-14  6.310533E-01  0.000000E+00
  9.013910E-04  1.781308E-03  5.000000E-01  9.104951E-04  1.738654E-03  0.000000E+00  2.171239E-02  2.431428E-02 -1.723166E-13  7.675790E-01  0.000000E+00
  3.295630E-04  1.037067E-03  5.000000E-01  3.328923E-04  9.868978E-04  0.000000E+00  1.312480E-02  1.967027E-02 -2.585349E-13  9.384024E-01  0.000000E+00
  7.194000E-05  4.946658E-04  5.000000E-01  7.266764E-05  4.390186E-04  0.000000E+00  2.332708E-03  4.330176E-04 -3.124687E-13  1.022992E+00  0.000000E+00
  4.516100E-06  1.683517E-04  5.000000E-01  4.562832E-06  1.094091E-04  0.000000E+00 -2.265351E-03 -2.161629E-02 -4.151979E-13  9.270050E-01  0.000000E+00
 -1.112850E-09  6.003644E-05  5.000000E-01  0.000000E+00  0.000000E+00  0.000000E+00 -1.308419E-03 -2.258343E-02 -4.333914E-13  8.271680E-01  0.000000E+00