 Title = "ADflow Slice Data"
Variables =  "CoordinateX"  "CoordinateY"  "CoordinateZ"  "XoC"  "YoC"  "ZoC" "VelocityX" "VelocityY" "VelocityZ" "CoefPressure" "Mach" 
Zone T= "Slice_0001 None Absolute Regular z = 0.50000000"
 Nodes =          192  Elements=          184  ZONETYPE=FELINESEG
 DATAPACKING=POINT
  5.566560E-01  2.898732E-02  5.000000E-01  5.622775E-01  2.921973E-02  0.000000E+00  7.810071E-03  1.049316E-04 -7.163060E-20  2.500760E-01  0.000000E+00
  5.776220E-01  2.922902E-02  5.000000E-01  5.834552E-01  2.946387E-02  0.000000E+00  7.671685E-03  7.492161E-05 -2.986825E-19  2.566924E-01  0.000000E+00
  5.983370E-01  2.939328E-02  5.000000E-01  6.043794E-01  2.962978E-02  0.000000E+00  7.548630E-03  4.746323E-05 -5.890140E-19  2.612608E-01  0.000000E+00
  6.187480E-01  2.948815E-02  5.000000E-01  6.249966E-01  2.972562E-02  0.000000E+00  7.423646E-03  2.349252E-05  1.148273E-18  2.654582E-01  0.000000E+00
  6.388030E-01  2.952183E-02  5.000000E-01  6.452541E-01  2.975964E-02  0.000000E+00  7.290671E-03  2.536675E-06  1.090750E-18  2.700493E-01  0.000000E+00
  6.584530E-01  2.950164E-02  5.000000E-01  6.651025E-01  2.973924E-02  0.000000E+00  7.150279E-03 -1.713981E-05  9.500647E-20  2.750353E-01  0.000000E+00
  6.776550E-01  2.942908E-02  5.000000E-01  6.844985E-01  2.966595E-02  0.000000E+00  7.010545E-03 -4.099532E-05 -2.606915E-19  2.809561E-01  0.000000E+00
  6.963720E-01  2.928113E-02  5.000000E-01  7.034045E-01  2.951650E-02  0.000000E+00  6.885104E-03 -7.385727E-05 -2.041002E-19  2.879049E-01  0.000000E+00
  7.145680E-01  2.903340E-02  5.000000E-01  7.217842E-01  2.926627E-02  0.000000E+00  6.780465E-03 -1.146109E-04 -8.880657E-20  2.944841E-01  0.000000E+00
  7.322140E-01  2.867544E-02  5.000000E-01  7.396084E-01  2.890470E-02  0.000000E+00  6.690819E-03 -1.589471E-04  1.305269E-19  2.997246E-01  0.000000E+00
  7.492860E-01  2.820991E-02  5.000000E-01  7.568528E-01  2.843446E-02  0.000000E+00  6.607720E-03 -2.024691E-04  5.343421E-19  3.038906E-01  0.000000E+00
  7.657630E-01  2.764863E-02  5.000000E-01  7.734962E-01  2.786751E-02  0.000000E+00  6.528413E-03 -2.426258E-04  7.994766E-19  3.071805E-01  0.000000E+00
  7.816300E-01  2.700819E-02  5.000000E-01  7.895235E-01  2.722061E-02  0.000000E+00  6.461041E-03 -2.845449E-04 -4.501746E-19  3.099982E-01  0.000000E+00
  7.968740E-01  2.628238E-02  5.000000E-01  8.049214E-01  2.648746E-02  0.000000E+00  6.436563E-03 -3.435312E-04 -2.239681E-19  3.142753E-01  0.000000E+00
  8.114890E-01  2.541970E-02  5.000000E-01  8.196840E-01  2.561608E-02  0.000000E+00  6.491903E-03 -4.269347E-04 -9.489566E-20  3.186090E-01  0.000000E+00
  8.254710E-01  2.440531E-02  5.000000E-01  8.338072E-01  2.459144E-02  0.000000E+00  6.631074E-03 -5.266171E-04 -7.192183E-19  3.191018E-01  0.000000E+00
  8.388180E-01  2.325499E-02  5.000000E-01  8.472890E-01  2.342951E-02  0.000000E+00  6.828789E-03 -6.326224E-04  1.181187E-21  3.153710E-01  0.000000E+00
  8.515320E-01  2.199785E-02  5.000000E-01  8.601314E-01  2.215967E-02  0.000000E+00  7.059657E-03 -7.388168E-04  4.038988E-19  3.089202E-01  0.000000E+00
  8.636180E-01  2.066581E-02  5.000000E-01  8.723394E-01  2.081418E-02  0.000000E+00  7.308429E-03 -8.422703E-04  2.538793E-19  3.008241E-01  0.000000E+00
  8.750810E-01  1.928901E-02  5.000000E-01  8.839182E-01  1.942348E-02  0.000000E+00  7.565754E-03 -9.415989E-04  7.012427E-19  2.915292E-01  0.000000E+00
  8.859290E-01  1.789331E-02  5.000000E-01  8.948758E-01  1.801368E-02  0.000000E+00  7.825050E-03 -1.036170E-03 -1.540703E-19  2.813732E-01  0.000000E+00
  8.961710E-01  1.649987E-02  5.000000E-01  9.052212E-01  1.660616E-02  0.000000E+00  8.082452E-03 -1.125832E-03  1.551851E-20  2.706655E-01  0.000000E+00
  9.058170E-01  1.512595E-02  5.000000E-01  9.149646E-01  1.521837E-02  0.000000E+00  8.336370E-03 -1.210762E-03  1.568447E-18  2.596089E-01  0.000000E+00
  9.148770E-01  1.378540E-02  5.000000E-01  9.241161E-01  1.386429E-02  0.000000E+00  8.586338E-03 -1.291196E-03  1.893789E-18  2.483161E-01  0.000000E+00
  9.148770E-01  1.378540E-02  5.000000E-01  9.241161E-01  1.386429E-02  0.000000E+00  8.586338E-03 -1.291196E-03  1.893789E-18  2.483161E-01  0.000000E+00
  9.233640E-01  1.248921E-02  5.000000E-01  9.326888E-01  1.255501E-02  0.000000E+00  8.832585E-03 -1.367545E-03  1.572491E-18  2.369023E-01  0.000000E+00
  9.312880E-01  1.124613E-02  5.000000E-01  9.406928E-01  1.129937E-02  0.000000E+00  9.076047E-03 -1.440348E-03  7.914934E-19  2.254639E-01  0.000000E+00
  9.386620E-01  1.006280E-02  5.000000E-01  9.481413E-01  1.010409E-02  0.000000E+00  9.317901E-03 -1.510134E-03  4.990965E-19  2.140427E-01  0.000000E+00
  9.454960E-01  8.944578E-03  5.000000E-01  9.550443E-01  8.974577E-03  0.000000E+00  9.559063E-03 -1.577274E-03 -2.482300E-19  2.026561E-01  0.000000E+00
  9.518040E-01  7.895260E-03  5.000000E-01  9.614160E-01  7.914661E-03  0.000000E+00  9.800731E-03 -1.642241E-03 -5.142915E-19  1.913550E-01  0.000000E+00
  9.575950E-01  6.918020E-03  5.000000E-01  9.672655E-01  6.927553E-03  0.000000E+00  1.004517E-02 -1.705688E-03 -8.698772E-19  1.801636E-01  0.000000E+00
  9.628810E-01  6.015007E-03  5.000000E-01  9.726049E-01  6.015420E-03  0.000000E+00  1.029657E-02 -1.768509E-03 -1.438801E-19  1.690894E-01  0.000000E+00
  9.676710E-01  5.187944E-03  5.000000E-01  9.774432E-01  5.180005E-03  0.000000E+00  1.056255E-02 -1.832214E-03  6.691868E-19  1.581720E-01  0.000000E+00
  9.719750E-01  4.437986E-03  5.000000E-01  9.817907E-01  4.422473E-03  0.000000E+00  1.085348E-02 -1.898682E-03 -8.700776E-19  1.474487E-01  0.000000E+00
  9.758020E-01  3.765914E-03  5.000000E-01  9.856564E-01  3.743614E-03  0.000000E+00  1.117428E-02 -1.968941E-03 -3.106688E-18  1.369502E-01  0.000000E+00
  9.791590E-01  3.172370E-03  5.000000E-01  9.890473E-01  3.144076E-03  0.000000E+00  1.150282E-02 -2.039449E-03 -5.817018E-18  1.265979E-01  0.000000E+00
  9.820540E-01  2.657636E-03  5.000000E-01  9.919715E-01  2.624144E-03  0.000000E+00  1.176892E-02 -2.098571E-03  7.140607E-19  1.168911E-01  0.000000E+00
  9.844930E-01  2.221955E-03  5.000000E-01  9.944351E-01  2.184063E-03  0.000000E+00  1.183361E-02 -2.117488E-03  2.543573E-17  1.087173E-01  0.000000E+00
  9.864820E-01  1.865375E-03  5.000000E-01  9.964442E-01  1.823883E-03  0.000000E+00  1.134724E-02 -2.025921E-03  4.920708E-17  9.810696E-02  0.000000E+00
  9.880240E-01  1.588071E-03  5.000000E-01  9.980018E-01  1.543778E-03  0.000000E+00  9.820547E-03 -1.780690E-03 -3.662396E-17  8.080642E-02  0.000000E+00
  9.891220E-01  1.390055E-03  5.000000E-01  9.991109E-01  1.343763E-03  0.000000E+00  9.142576E-03 -1.755374E-03 -4.963415E-16  9.873348E-02  0.000000E+00
  9.897810E-01  1.271169E-03  5.000000E-01  9.997765E-01  1.223675E-03  0.000000E+00  1.620224E-02 -1.687227E-03 -1.507971E-15  1.849738E-01  0.000000E+00
  9.900000E-01  1.231583E-03  5.000000E-01  9.999977E-01  1.183690E-03  0.000000E+00  1.323729E-02 -2.900660E-03 -1.969316E-15 -6.658380E-02  0.000000E+00
  9.900000E-01  1.417804E-03  5.000000E-01  9.999977E-01  1.371791E-03  0.000000E+00  1.210268E-03 -1.459093E-02 -1.244056E-15 -2.089874E-01  0.000000E+00
  9.900000E-01  1.604014E-03  5.000000E-01  9.999977E-01  1.559882E-03  0.000000E+00 -7.433910E-04 -1.521293E-02 -3.117981E-16 -2.873472E-02  0.000000E+00
  9.900000E-01  1.790235E-03  5.000000E-01  9.999977E-01  1.747984E-03  0.000000E+00 -4.294988E-04  2.104868E-03  4.593659E-16 -4.043999E-02  0.000000E+00
  9.900000E-01  1.976456E-03  5.000000E-01  9.999977E-01  1.936085E-03  0.000000E+00  7.489377E-04  2.475479E-03  1.551736E-15 -1.547389E-01  0.000000E+00
  9.900000E-01  2.162676E-03  5.000000E-01  9.999977E-01  2.124186E-03  0.000000E+00  7.515966E-03 -4.993194E-03  2.323183E-15 -6.423649E-02  0.000000E+00
  9.900000E-01  2.162676E-03  5.000000E-01  9.999977E-01  2.124186E-03  0.000000E+00  7.515966E-03 -4.993194E-03  2.323183E-15 -6.423649E-02  0.000000E+00
  9.897920E-01  2.219147E-03  5.000000E-01  9.997876E-01  2.181227E-03  0.000000E+00  8.180960E-03 -2.966932E-03  1.656743E-15  6.434543E-02  0.000000E+00
  9.891660E-01  2.388562E-03  5.000000E-01  9.991553E-01  2.352353E-03  0.000000E+00  2.749898E-03 -6.590491E-04  5.386775E-16 -3.137549E-03  0.000000E+00
  9.881230E-01  2.670496E-03  5.000000E-01  9.981018E-01  2.637134E-03  0.000000E+00  2.429126E-03 -6.536427E-04  4.344857E-17 -1.437443E-02  0.000000E+00
  9.866580E-01  3.064675E-03  5.000000E-01  9.966220E-01  3.035294E-03  0.000000E+00  2.845912E-03 -7.716586E-04 -5.818727E-17 -9.892098E-03  0.000000E+00
  9.847700E-01  3.570282E-03  5.000000E-01  9.947149E-01  3.546007E-03  0.000000E+00  2.961920E-03 -7.903135E-04 -3.913790E-17 -1.377908E-02  0.000000E+00
  9.824550E-01  4.186434E-03  5.000000E-01  9.923765E-01  4.168381E-03  0.000000E+00  3.040809E-03 -8.052739E-04 -1.480372E-17 -2.129616E-02  0.000000E+00
  9.797070E-01  4.912041E-03  5.000000E-01  9.896008E-01  4.901316E-03  0.000000E+00  3.183855E-03 -8.368510E-04 -3.985799E-18 -2.992185E-02  0.000000E+00
  9.765220E-01  5.745567E-03  5.000000E-01  9.863836E-01  5.743259E-03  0.000000E+00  3.388566E-03 -8.819546E-04  1.092620E-18 -4.005344E-02  0.000000E+00
  9.728930E-01  6.685287E-03  5.000000E-01  9.827180E-01  6.692469E-03  0.000000E+00  3.648213E-03 -9.386909E-04  8.985064E-19 -5.179323E-02  0.000000E+00
  9.688130E-01  7.729029E-03  5.000000E-01  9.785968E-01  7.746752E-03  0.000000E+00  3.955687E-03 -1.004611E-03  8.609959E-19 -6.499720E-02  0.000000E+00
  9.642740E-01  8.874231E-03  5.000000E-01  9.740119E-01  8.903519E-03  0.000000E+00  4.302708E-03 -1.076734E-03  1.749120E-18 -7.953409E-02  0.000000E+00
  9.592670E-01  1.011785E-02  5.000000E-01  9.689544E-01  1.015970E-02  0.000000E+00  4.682651E-03 -1.152607E-03 -7.354708E-19 -9.534129E-02  0.000000E+00
  9.537850E-01  1.145612E-02  5.000000E-01  9.634170E-01  1.151148E-02  0.000000E+00  5.090853E-03 -1.230105E-03 -2.557653E-18 -1.122545E-01  0.000000E+00
  9.478160E-01  1.288484E-02  5.000000E-01  9.573877E-01  1.295463E-02  0.000000E+00  5.523411E-03 -1.307307E-03 -2.959162E-18 -1.301564E-01  0.000000E+00
  9.413520E-01  1.439891E-02  5.000000E-01  9.508585E-01  1.448399E-02  0.000000E+00  5.977252E-03 -1.382491E-03 -2.546051E-18 -1.489039E-01  0.000000E+00
  9.343800E-01  1.599262E-02  5.000000E-01  9.438161E-01  1.609379E-02  0.000000E+00  6.449334E-03 -1.453906E-03 -1.585138E-18 -1.683076E-01  0.000000E+00
  9.268920E-01  1.765881E-02  5.000000E-01  9.362524E-01  1.777681E-02  0.000000E+00  6.936617E-03 -1.519754E-03 -6.578534E-19 -1.882069E-01  0.000000E+00
  9.188750E-01  1.938977E-02  5.000000E-01  9.281545E-01  1.952526E-02  0.000000E+00  7.435967E-03 -1.578160E-03  2.610240E-19 -2.083517E-01  0.000000E+00
  9.103190E-01  2.117625E-02  5.000000E-01  9.195121E-01  2.132978E-02  0.000000E+00  7.943614E-03 -1.627157E-03  1.490838E-19 -2.284986E-01  0.000000E+00
  9.012130E-01  2.300772E-02  5.000000E-01  9.103141E-01  2.317974E-02  0.000000E+00  8.455191E-03 -1.664545E-03  1.246398E-19 -2.483297E-01  0.000000E+00
  8.915460E-01  2.487205E-02  5.000000E-01  9.005495E-01  2.506289E-02  0.000000E+00  8.965106E-03 -1.688071E-03  1.275107E-19 -2.674908E-01  0.000000E+00
  8.813080E-01  2.675564E-02  5.000000E-01  8.902081E-01  2.696550E-02  0.000000E+00  9.465785E-03 -1.695324E-03  8.981195E-19 -2.855099E-01  0.000000E+00
  8.704900E-01  2.864306E-02  5.000000E-01  8.792808E-01  2.887198E-02  0.000000E+00  9.946241E-03 -1.683755E-03  1.788480E-18 -3.017778E-01  0.000000E+00
  8.704900E-01  2.864306E-02  5.000000E-01  8.792808E-01  2.887198E-02  0.000000E+00  9.946241E-03 -1.683755E-03  1.788480E-18 -3.017778E-01  0.000000E+00
  8.590830E-01  3.051766E-02  5.000000E-01  8.677586E-01  3.076552E-02  0.000000E+00  1.039176E-02 -1.651402E-03  1.293752E-18 -3.157097E-01  0.000000E+00
  8.470810E-01  3.236230E-02  5.000000E-01  8.556354E-01  3.262879E-02  0.000000E+00  1.078491E-02 -1.597316E-03 -1.545438E-18 -3.266589E-01  0.000000E+00
  8.344780E-01  3.416061E-02  5.000000E-01  8.429052E-01  3.444526E-02  0.000000E+00  1.110388E-02 -1.522226E-03 -4.680646E-18 -3.335185E-01  0.000000E+00
  8.212700E-01  3.589949E-02  5.000000E-01  8.295638E-01  3.620170E-02  0.000000E+00  1.131820E-02 -1.430183E-03 -4.937154E-18 -3.346733E-01  0.000000E+00
  8.074550E-01  3.757445E-02  5.000000E-01  8.156093E-01  3.789357E-02  0.000000E+00  1.139264E-02 -1.331733E-03 -3.100257E-18 -3.294309E-01  0.000000E+00
  7.930350E-01  3.919839E-02  5.000000E-01  8.010436E-01  3.953391E-02  0.000000E+00  1.131343E-02 -1.246151E-03 -6.012192E-19 -3.208556E-01  0.000000E+00
  7.780130E-01  4.081370E-02  5.000000E-01  7.858699E-01  4.116553E-02  0.000000E+00  1.112143E-02 -1.191175E-03  1.844761E-18 -3.146314E-01  0.000000E+00
  7.623950E-01  4.247859E-02  5.000000E-01  7.700942E-01  4.284724E-02  0.000000E+00  1.089734E-02 -1.161698E-03  2.295343E-18 -3.119304E-01  0.000000E+00
  7.461930E-01  4.420663E-02  5.000000E-01  7.537286E-01  4.459273E-02  0.000000E+00  1.070205E-02 -1.143069E-03  1.219803E-19 -3.112720E-01  0.000000E+00
  7.294180E-01  4.600079E-02  5.000000E-01  7.367842E-01  4.640501E-02  0.000000E+00  1.056051E-02 -1.132223E-03 -1.757809E-18 -3.131945E-01  0.000000E+00
  7.120900E-01  4.786285E-02  5.000000E-01  7.192812E-01  4.828587E-02  0.000000E+00  1.048255E-02 -1.129203E-03 -1.336607E-18 -3.180436E-01  0.000000E+00
  6.942280E-01  4.979140E-02  5.000000E-01  7.012388E-01  5.023390E-02  0.000000E+00  1.046922E-02 -1.131961E-03 -9.782864E-19 -3.257525E-01  0.000000E+00
  6.758590E-01  5.178001E-02  5.000000E-01  6.826843E-01  5.224259E-02  0.000000E+00  1.051518E-02 -1.136605E-03 -1.007428E-18 -3.357877E-01  0.000000E+00
  6.570120E-01  5.381433E-02  5.000000E-01  6.636470E-01  5.429746E-02  0.000000E+00  1.060863E-02 -1.139238E-03  5.065774E-19 -3.471486E-01  0.000000E+00
  6.377220E-01  5.587550E-02  5.000000E-01  6.441622E-01  5.637944E-02  0.000000E+00  1.073337E-02 -1.139076E-03  3.177508E-19 -3.595172E-01  0.000000E+00
  6.180260E-01  5.795141E-02  5.000000E-01  6.242673E-01  5.847631E-02  0.000000E+00  1.087651E-02 -1.136799E-03 -4.646852E-19 -3.731064E-01  0.000000E+00
  5.979670E-01  6.003027E-02  5.000000E-01  6.040057E-01  6.057617E-02  0.000000E+00  1.103101E-02 -1.131696E-03  7.569396E-19 -3.879112E-01  0.000000E+00
  5.775910E-01  6.209926E-02  5.000000E-01  5.834239E-01  6.266605E-02  0.000000E+00  1.119133E-02 -1.122222E-03  2.326752E-18 -4.034875E-01  0.000000E+00
  5.569470E-01  6.414398E-02  5.000000E-01  5.625715E-01  6.473142E-02  0.000000E+00  1.134748E-02 -1.106704E-03  2.360020E-18 -4.186874E-01  0.000000E+00
  5.360860E-01  6.614779E-02  5.000000E-01  5.414998E-01  6.675547E-02  0.000000E+00  1.148382E-02 -1.087415E-03  2.212724E-18 -4.333126E-01  0.000000E+00
  5.150640E-01  6.810981E-02  5.000000E-01  5.202655E-01  6.873730E-02  0.000000E+00  1.159022E-02 -1.070075E-03  7.385667E-19 -4.484498E-01  0.000000E+00
  4.939370E-01  7.003935E-02  5.000000E-01  4.989251E-01  7.068633E-02  0.000000E+00  1.166993E-02 -1.057942E-03 -1.095294E-18 -4.649760E-01  0.000000E+00
  4.727610E-01  7.194517E-02  5.000000E-01  4.775353E-01  7.261140E-02  0.000000E+00  1.173697E-02 -1.052188E-03 -2.914217E-19 -4.841562E-01  0.000000E+00
  5.770140E-06 -5.219470E-05  5.000000E-01  5.829535E-06 -1.130524E-04  0.000000E+00  1.271453E-02 -8.300800E-02 -3.162329E-13  5.255985E-01  0.000000E+00
  9.104010E-05 -3.819772E-04  5.000000E-01  9.196061E-05 -4.461652E-04  0.000000E+00  3.972756E-02 -7.925338E-02 -2.792218E-13  3.809205E-01  0.000000E+00
  4.796980E-04 -8.885037E-04  5.000000E-01  4.845435E-04 -9.578071E-04  0.000000E+00  5.784812E-02 -5.458253E-02 -1.898391E-13 -1.045588E-01  0.000000E+00
  1.456590E-03 -1.466401E-03  5.000000E-01  1.471301E-03 -1.541540E-03  0.000000E+00  4.951604E-02 -2.442887E-02 -9.395214E-14 -4.018449E-01  0.000000E+00
  3.096410E-03 -2.013791E-03  5.000000E-01  3.127681E-03 -2.094458E-03  0.000000E+00  3.335819E-02 -9.609721E-03 -3.041915E-14 -3.676783E-01  0.000000E+00
  5.335170E-03 -2.507550E-03  5.000000E-01  5.389050E-03 -2.593203E-03  0.000000E+00  2.427270E-02 -4.600042E-03 -2.689590E-15 -2.674057E-01  0.000000E+00
  8.129670E-03 -2.939515E-03  5.000000E-01  8.211770E-03 -3.029531E-03  0.000000E+00  2.065808E-02 -2.700799E-03  3.938874E-15 -2.261919E-01  0.000000E+00
  1.145600E-02 -3.288771E-03  5.000000E-01  1.157169E-02 -3.382314E-03  0.000000E+00  1.838033E-02 -1.463985E-03  3.020463E-15 -2.310193E-01  0.000000E+00
  1.529970E-02 -3.485101E-03  5.000000E-01  1.545421E-02 -3.580627E-03  0.000000E+00  1.547605E-02 -3.593592E-04  1.197457E-15 -2.473006E-01  0.000000E+00
  1.962420E-02 -3.433011E-03  5.000000E-01  1.982238E-02 -3.528010E-03  0.000000E+00  1.216779E-02  3.753284E-04  2.249439E-16 -2.298525E-01  0.000000E+00
  2.439810E-02 -3.151456E-03  5.000000E-01  2.464449E-02 -3.243613E-03  0.000000E+00  1.008879E-02  6.073311E-04 -5.432520E-17 -1.466201E-01  0.000000E+00
  2.966100E-02 -2.825195E-03  5.000000E-01  2.996054E-02 -2.914057E-03  0.000000E+00  1.015053E-02  6.068864E-04 -6.155590E-17 -5.470571E-02  0.000000E+00
  3.543640E-02 -2.510116E-03  5.000000E-01  3.579426E-02 -2.595796E-03  0.000000E+00  1.139762E-02  6.141521E-04 -2.295654E-17 -2.037492E-02  0.000000E+00
  4.172970E-02 -2.178954E-03  5.000000E-01  4.215112E-02 -2.261290E-03  0.000000E+00  1.249544E-02  6.889571E-04 -1.930196E-18 -2.604360E-02  0.000000E+00
  4.854440E-02 -1.784175E-03  5.000000E-01  4.903464E-02 -1.862524E-03  0.000000E+00  1.293198E-02  8.325999E-04  3.816651E-18 -3.859861E-02  0.000000E+00
  5.588220E-02 -1.262488E-03  5.000000E-01  5.644654E-02 -1.335568E-03  0.000000E+00  1.282449E-02  1.004154E-03  2.936157E-18 -4.268781E-02  0.000000E+00
  6.375220E-02 -5.861609E-04  5.000000E-01  6.439602E-02 -6.524109E-04  0.000000E+00  1.248141E-02  1.151540E-03  1.474350E-18 -3.439999E-02  0.000000E+00
  7.217040E-02  2.458770E-04  5.000000E-01  7.289923E-02  1.880294E-04  0.000000E+00  1.212901E-02  1.262582E-03  2.203448E-19 -1.883730E-02  0.000000E+00
  8.115500E-02  1.228590E-03  5.000000E-01  8.197456E-02  1.180667E-03  0.000000E+00  1.181524E-02  1.355053E-03 -7.974864E-19 -2.804543E-03  0.000000E+00
  9.072040E-02  2.376153E-03  5.000000E-01  9.163656E-02  2.339819E-03  0.000000E+00  1.146526E-02  1.443764E-03 -2.354723E-19  1.118448E-02  0.000000E+00
  1.008780E-01  3.717688E-03  5.000000E-01  1.018967E-01  3.694901E-03  0.000000E+00  1.099023E-02  1.523524E-03 -2.129148E-21  2.625604E-02  0.000000E+00
  1.116380E-01  5.284070E-03  5.000000E-01  1.127654E-01  5.277102E-03  0.000000E+00  1.033701E-02  1.579224E-03  1.864824E-19  4.584577E-02  0.000000E+00
  1.230100E-01  7.109652E-03  5.000000E-01  1.242522E-01  7.121119E-03  0.000000E+00  9.480442E-03  1.594117E-03  2.832772E-18  7.136252E-02  0.000000E+00
  1.350030E-01  9.227442E-03  5.000000E-01  1.363664E-01  9.260297E-03  0.000000E+00  8.424781E-03  1.551944E-03  3.047716E-18  1.036422E-01  0.000000E+00
  1.350030E-01  9.227442E-03  5.000000E-01  1.363664E-01  9.260297E-03  0.000000E+00  8.424781E-03  1.551944E-03  3.047716E-18  1.036422E-01  0.000000E+00
  1.476220E-01  1.166273E-02  5.000000E-01  1.491128E-01  1.172018E-02  0.000000E+00  7.222081E-03  1.443953E-03 -1.021909E-18  1.432925E-01  0.000000E+00
  1.608730E-01  1.442277E-02  5.000000E-01  1.624976E-01  1.450809E-02  0.000000E+00  5.981658E-03  1.277123E-03 -3.028659E-18  1.901910E-01  0.000000E+00
  1.747560E-01  1.747693E-02  5.000000E-01  1.765208E-01  1.759309E-02  0.000000E+00  4.854446E-03  1.076335E-03 -4.234712E-18  2.426021E-01  0.000000E+00
  1.892730E-01  2.072633E-02  5.000000E-01  1.911844E-01  2.087531E-02  0.000000E+00  4.002274E-03  8.758997E-04 -5.392526E-18  2.975916E-01  0.000000E+00
  2.044180E-01  2.395951E-02  5.000000E-01  2.064824E-01  2.414114E-02  0.000000E+00  3.572331E-03  7.064741E-04 -3.925992E-18  3.528408E-01  0.000000E+00
  2.201880E-01  2.682034E-02  5.000000E-01  2.224116E-01  2.703086E-02  0.000000E+00  3.633362E-03  5.760574E-04 -7.698796E-19  3.988826E-01  0.000000E+00
  2.365750E-01  2.905896E-02  5.000000E-01  2.389641E-01  2.929209E-02  0.000000E+00  4.117698E-03  4.596122E-04  5.523335E-20  4.237806E-01  0.000000E+00
  2.535710E-01  3.058881E-02  5.000000E-01  2.561317E-01  3.083739E-02  0.000000E+00  4.889394E-03  3.193817E-04 -5.281777E-19  4.288233E-01  0.000000E+00
  2.711570E-01  3.137828E-02  5.000000E-01  2.738953E-01  3.163483E-02  0.000000E+00  5.833964E-03  1.352955E-04  1.623133E-18  4.203594E-01  0.000000E+00
  2.893100E-01  3.146916E-02  5.000000E-01  2.922317E-01  3.172663E-02  0.000000E+00  6.851771E-03 -7.673340E-05  1.957978E-18  4.003451E-01  0.000000E+00
  3.080020E-01  3.099809E-02  5.000000E-01  3.111124E-01  3.125080E-02  0.000000E+00  7.823178E-03 -2.602937E-04  9.163053E-19  3.685461E-01  0.000000E+00
  3.271950E-01  3.021533E-02  5.000000E-01  3.304993E-01  3.046014E-02  0.000000E+00  8.612148E-03 -3.496219E-04  7.377591E-19  3.261343E-01  0.000000E+00
  3.468470E-01  2.942124E-02  5.000000E-01  3.503497E-01  2.965803E-02  0.000000E+00  9.142602E-03 -3.447556E-04 -2.370049E-19  2.851902E-01  0.000000E+00
  3.669110E-01  2.872407E-02  5.000000E-01  3.706163E-01  2.895381E-02  0.000000E+00  9.442868E-03 -2.954560E-04 -1.244884E-18  2.569755E-01  0.000000E+00
  3.873360E-01  2.815501E-02  5.000000E-01  3.912476E-01  2.837901E-02  0.000000E+00  9.569748E-03 -2.275240E-04 -2.023468E-18  2.383112E-01  0.000000E+00
  4.080670E-01  2.774427E-02  5.000000E-01  4.121880E-01  2.796412E-02  0.000000E+00  9.549886E-03 -1.466618E-04 -1.698220E-18  2.245176E-01  0.000000E+00
  4.290470E-01  2.751552E-02  5.000000E-01  4.333798E-01  2.773306E-02  0.000000E+00  9.396669E-03 -5.783126E-05 -1.420527E-18  2.150800E-01  0.000000E+00
  4.502140E-01  2.748833E-02  5.000000E-01  4.547606E-01  2.770559E-02  0.000000E+00  9.138003E-03  2.695226E-05 -2.007549E-18  2.113090E-01  0.000000E+00
  4.715070E-01  2.764603E-02  5.000000E-01  4.762686E-01  2.786489E-02  0.000000E+00  8.823489E-03  9.158814E-05 -1.592437E-18  2.142211E-01  0.000000E+00
  4.928620E-01  2.793433E-02  5.000000E-01  4.978393E-01  2.815610E-02  0.000000E+00  8.505926E-03  1.290119E-04  1.001125E-20  2.219308E-01  0.000000E+00
  5.142140E-01  2.829419E-02  5.000000E-01  5.194069E-01  2.851959E-02  0.000000E+00  8.221359E-03  1.408304E-04  5.503301E-19  2.314172E-01  0.000000E+00
  5.355000E-01  2.866462E-02  5.000000E-01  5.409079E-01  2.889377E-02  0.000000E+00  7.988302E-03  1.305002E-04 -9.200874E-19  2.411641E-01  0.000000E+00
  5.566560E-01  2.898732E-02  5.000000E-01  5.622775E-01  2.921973E-02  0.000000E+00  7.810071E-03  1.049316E-04 -7.163060E-20  2.500760E-01  0.000000E+00
  4.727610E-01  7.194517E-02  5.000000E-01  4.775353E-01  7.261140E-02  0.000000E+00  1.173697E-02 -1.052188E-03 -2.914217E-19 -4.841562E-01  0.000000E+00
  4.515970E-01  7.383454E-02  5.000000E-01  4.561576E-01  7.451985E-02  0.000000E+00  1.181722E-02 -1.053853E-03 -3.629761E-19 -5.082439E-01  0.000000E+00
  4.305020E-01  7.571273E-02  5.000000E-01  4.348495E-01  7.641700E-02  0.000000E+00  1.194857E-02 -1.060838E-03 -9.023273E-19 -5.387548E-01  0.000000E+00
  4.095340E-01  7.756881E-02  5.000000E-01  4.136698E-01  7.829183E-02  0.000000E+00  1.216794E-02 -1.067376E-03  7.295370E-19 -5.752709E-01  0.000000E+00
  3.887520E-01  7.937637E-02  5.000000E-01  3.926779E-01  8.011764E-02  0.000000E+00  1.249747E-02 -1.068956E-03  6.636586E-19 -6.170999E-01  0.000000E+00
  3.682080E-01  8.110653E-02  5.000000E-01  3.719264E-01  8.186528E-02  0.000000E+00  1.295191E-02 -1.063267E-03 -3.078880E-20 -6.658659E-01  0.000000E+00
  3.479570E-01  8.272718E-02  5.000000E-01  3.514709E-01  8.350228E-02  0.000000E+00  1.357092E-02 -1.047928E-03 -1.455572E-19 -7.278104E-01  0.000000E+00
  3.280470E-01  8.420593E-02  5.000000E-01  3.313599E-01  8.499597E-02  0.000000E+00  1.444916E-02 -1.007659E-03 -3.390756E-19 -8.088882E-01  0.000000E+00
  3.085240E-01  8.548236E-02  5.000000E-01  3.116397E-01  8.628529E-02  0.000000E+00  1.569099E-02 -8.867822E-04 -7.839456E-19 -9.018172E-01  0.000000E+00
  2.894320E-01  8.640876E-02  5.000000E-01  2.923549E-01  8.722105E-02  0.000000E+00  1.728482E-02 -6.179070E-04 -1.941058E-18 -9.926079E-01  0.000000E+00
  2.708110E-01  8.686040E-02  5.000000E-01  2.735458E-01  8.767725E-02  0.000000E+00  1.908050E-02 -1.696975E-04 -1.937987E-18 -1.073446E+00  0.000000E+00
  2.526960E-01  8.676824E-02  5.000000E-01  2.552479E-01  8.758416E-02  0.000000E+00  2.088869E-02  4.544772E-04 -2.034214E-18 -1.140833E+00  0.000000E+00
  2.351200E-01  8.611544E-02  5.000000E-01  2.374944E-01  8.692476E-02  0.000000E+00  2.255379E-02  1.239390E-03 -2.358367E-18 -1.189515E+00  0.000000E+00
  2.181120E-01  8.490025E-02  5.000000E-01  2.203147E-01  8.569731E-02  0.000000E+00  2.394433E-02  2.166440E-03 -2.731920E-18 -1.209770E+00  0.000000E+00
  2.017010E-01  8.312130E-02  5.000000E-01  2.037379E-01  8.390039E-02  0.000000E+00  2.492340E-02  3.159388E-03 -1.297135E-18 -1.201006E+00  0.000000E+00
  1.859190E-01  8.083887E-02  5.000000E-01  1.877965E-01  8.159491E-02  0.000000E+00  2.543743E-02  4.105846E-03  7.121140E-19 -1.174794E+00  0.000000E+00
  1.707920E-01  7.814517E-02  5.000000E-01  1.725168E-01  7.887400E-02  0.000000E+00  2.558125E-02  4.967645E-03  2.214027E-18 -1.139169E+00  0.000000E+00
  1.563470E-01  7.510731E-02  5.000000E-01  1.579259E-01  7.580546E-02  0.000000E+00  2.550115E-02  5.777701E-03  2.798022E-18 -1.095307E+00  0.000000E+00
  1.426070E-01  7.176991E-02  5.000000E-01  1.440472E-01  7.243437E-02  0.000000E+00  2.529770E-02  6.569014E-03  1.522667E-18 -1.042577E+00  0.000000E+00
  1.295900E-01  6.816987E-02  5.000000E-01  1.308987E-01  6.879797E-02  0.000000E+00  2.501021E-02  7.348534E-03  1.078472E-18 -9.802935E-01  0.000000E+00
  1.173060E-01  6.434643E-02  5.000000E-01  1.184906E-01  6.493592E-02  0.000000E+00  2.463701E-02  8.104335E-03 -1.538025E-19 -9.079596E-01  0.000000E+00
  1.057600E-01  6.034136E-02  5.000000E-01  1.068280E-01  6.089040E-02  0.000000E+00  2.416175E-02  8.816294E-03  3.847073E-19 -8.255343E-01  0.000000E+00
  9.495290E-02  5.619969E-02  5.000000E-01  9.591180E-02  5.670691E-02  0.000000E+00  2.357637E-02  9.460356E-03  1.208146E-18 -7.343083E-01  0.000000E+00
  8.487680E-02  5.197029E-02  5.000000E-01  8.573395E-02  5.243479E-02  0.000000E+00  2.289238E-02  1.001929E-02  3.276509E-18 -6.355437E-01  0.000000E+00
  8.487680E-02  5.197029E-02  5.000000E-01  8.573395E-02  5.243479E-02  0.000000E+00  2.289238E-02  1.001929E-02  3.276509E-18 -6.355437E-01  0.000000E+00
  7.552090E-02  4.770337E-02  5.000000E-01  7.628357E-02  4.812479E-02  0.000000E+00  2.212313E-02  1.048084E-02  1.007695E-17 -5.289680E-01  0.000000E+00
  6.687020E-02  4.344777E-02  5.000000E-01  6.754551E-02  4.382621E-02  0.000000E+00  2.126877E-02  1.081401E-02  1.000866E-17 -4.160020E-01  0.000000E+00
  5.889940E-02  3.925866E-02  5.000000E-01  5.949421E-02  3.959479E-02  0.000000E+00  2.034612E-02  1.098306E-02  7.372435E-18 -3.022917E-01  0.000000E+00
  5.157140E-02  3.519365E-02  5.000000E-01  5.209221E-02  3.548873E-02  0.000000E+00  1.942496E-02  1.100513E-02  6.269513E-18 -1.946956E-01  0.000000E+00
  4.484650E-02  3.130043E-02  5.000000E-01  4.529939E-02  3.155619E-02  0.000000E+00  1.861614E-02  1.097814E-02  5.505884E-18 -9.662997E-02  0.000000E+00
  3.869820E-02  2.760597E-02  5.000000E-01  3.908900E-02  2.782443E-02  0.000000E+00  1.802331E-02  1.103913E-02 -1.211921E-18 -7.065016E-03  0.000000E+00
  3.311550E-02  2.411975E-02  5.000000E-01  3.344993E-02  2.430300E-02  0.000000E+00  1.768980E-02  1.128567E-02 -1.608319E-17  7.826008E-02  0.000000E+00
  2.809130E-02  2.084721E-02  5.000000E-01  2.837499E-02  2.099741E-02  0.000000E+00  1.749084E-02  1.168586E-02 -3.450099E-17  1.722589E-01  0.000000E+00
  2.362330E-02  1.779070E-02  5.000000E-01  2.386187E-02  1.791003E-02  0.000000E+00  1.710656E-02  1.193937E-02 -6.755765E-17  2.834380E-01  0.000000E+00
  1.966610E-02  1.497233E-02  5.000000E-01  1.986470E-02  1.506320E-02  0.000000E+00  1.639327E-02  1.163692E-02 -1.223545E-16  3.891125E-01  0.000000E+00
  1.609460E-02  1.244322E-02  5.000000E-01  1.625714E-02  1.250855E-02  0.000000E+00  1.565916E-02  1.087010E-02 -1.415887E-16  4.670153E-01  0.000000E+00
  1.282740E-02  1.022177E-02  5.000000E-01  1.295694E-02  1.026467E-02  0.000000E+00  1.537652E-02  1.024044E-02  1.368147E-16  5.217801E-01  0.000000E+00
  9.860990E-03  8.288462E-03  5.000000E-01  9.960575E-03  8.311834E-03  0.000000E+00  1.580140E-02  1.027313E-02  1.266889E-15  5.700542E-01  0.000000E+00
  7.251350E-03  6.597463E-03  5.000000E-01  7.324581E-03  6.603758E-03  0.000000E+00  1.686140E-02  1.112213E-02  3.657791E-15  6.239806E-01  0.000000E+00
  5.038810E-03  5.114998E-03  5.000000E-01  5.089697E-03  5.106322E-03  0.000000E+00  1.823576E-02  1.267793E-02  5.863245E-15  6.852349E-01  0.000000E+00
  3.239710E-03  3.823361E-03  5.000000E-01  3.272428E-03  3.801641E-03  0.000000E+00  1.914424E-02  1.461250E-02  1.315216E-15  7.595354E-01  0.000000E+00
  1.861880E-03  2.712624E-03  5.000000E-01  1.880684E-03  2.679688E-03  0.000000E+00  1.759428E-02  1.551566E-02 -2.427743E-14  8.590537E-01  0.000000E+00
  9.013910E-04  1.781157E-03  5.000000E-01  9.104950E-04  1.738814E-03  0.000000E+00  1.018731E-02  1.061314E-02 -8.822899E-14  9.872447E-01  0.000000E+00
  3.295630E-04  1.036776E-03  5.000000E-01  3.328923E-04  9.869159E-04  0.000000E+00 -3.729034E-03 -1.024044E-02 -1.926214E-13  1.082664E+00  0.000000E+00
  7.194000E-05  4.943589E-04  5.000000E-01  7.266763E-05  4.390207E-04  0.000000E+00 -1.402921E-02 -5.315242E-02 -2.991814E-13  9.799235E-01  0.000000E+00
  4.516100E-06  1.680437E-04  5.000000E-01  4.562831E-06  1.094101E-04  0.000000E+00 -1.135922E-02 -9.378664E-02 -3.413122E-13  6.523708E-01  0.000000E+00
 -1.112850E-09  5.972741E-05  5.000000E-01  0.000000E+00  0.000000E+00  0.000000E+00 -2.046752E-03 -9.436942E-02 -3.275928E-13  4.525701E-01  0.000000E+00