 Title = "ADflow Slice Data"
Variables =  "CoordinateX"  "CoordinateY"  "CoordinateZ"  "XoC"  "YoC"  "ZoC" "VelocityX" "VelocityY" "VelocityZ" "CoefPressure" "Mach" 
Zone T= "Slice_0001 None Absolute Regular z = 0.50000000"
 Nodes =          192  Elements=          184  ZONETYPE=FELINESEG
 DATAPACKING=POINT
  5.566560E-01  2.996871E-02  5.000000E-01  5.622776E-01  3.021074E-02  0.000000E+00  7.406909E-03  1.998845E-05 -1.319199E-18  3.019318E-01  0.000000E+00
  5.776220E-01  2.995025E-02  5.000000E-01  5.834553E-01  3.019210E-02  0.000000E+00  7.436374E-03 -3.242951E-05 -2.366548E-18  3.008702E-01  0.000000E+00
  5.983370E-01  2.978802E-02  5.000000E-01  6.043795E-01  3.002824E-02  0.000000E+00  7.473819E-03 -8.351144E-05 -3.743865E-18  2.990534E-01  0.000000E+00
  6.187480E-01  2.949209E-02  5.000000E-01  6.249967E-01  2.972931E-02  0.000000E+00  7.516796E-03 -1.329648E-04 -2.700708E-18  2.966694E-01  0.000000E+00
  6.388030E-01  2.907375E-02  5.000000E-01  6.452542E-01  2.930675E-02  0.000000E+00  7.563472E-03 -1.808199E-04 -2.313308E-18  2.938856E-01  0.000000E+00
  6.584530E-01  2.854453E-02  5.000000E-01  6.651026E-01  2.877218E-02  0.000000E+00  7.612116E-03 -2.270517E-04 -3.441156E-18  2.908134E-01  0.000000E+00
  6.776550E-01  2.791642E-02  5.000000E-01  6.844985E-01  2.813773E-02  0.000000E+00  7.659935E-03 -2.712664E-04 -4.800649E-18  2.874376E-01  0.000000E+00
  6.963720E-01  2.720325E-02  5.000000E-01  7.034046E-01  2.741736E-02  0.000000E+00  7.703329E-03 -3.134124E-04 -5.426614E-18  2.838937E-01  0.000000E+00
  7.145680E-01  2.641626E-02  5.000000E-01  7.217843E-01  2.662242E-02  0.000000E+00  7.739045E-03 -3.537734E-04 -4.212297E-18  2.803629E-01  0.000000E+00
  7.322140E-01  2.556628E-02  5.000000E-01  7.396085E-01  2.576385E-02  0.000000E+00  7.764739E-03 -3.921768E-04 -2.506495E-18  2.768829E-01  0.000000E+00
  7.492860E-01  2.466431E-02  5.000000E-01  7.568529E-01  2.485278E-02  0.000000E+00  7.780903E-03 -4.282091E-04 -1.148314E-18  2.735757E-01  0.000000E+00
  7.657630E-01  2.372121E-02  5.000000E-01  7.734963E-01  2.390016E-02  0.000000E+00  7.792157E-03 -4.620873E-04  1.682344E-18  2.703262E-01  0.000000E+00
  7.816300E-01  2.274707E-02  5.000000E-01  7.895236E-01  2.291617E-02  0.000000E+00  7.809413E-03 -4.986525E-04  1.996373E-18  2.672010E-01  0.000000E+00
  7.968740E-01  2.173747E-02  5.000000E-01  8.049215E-01  2.189638E-02  0.000000E+00  7.856592E-03 -5.490492E-04  1.541673E-18  2.651943E-01  0.000000E+00
  8.114890E-01  2.066381E-02  5.000000E-01  8.196841E-01  2.081187E-02  0.000000E+00  7.957826E-03 -6.170229E-04  1.295068E-18  2.630968E-01  0.000000E+00
  8.254710E-01  1.952242E-02  5.000000E-01  8.338073E-01  1.965896E-02  0.000000E+00  8.112686E-03 -6.941584E-04  2.817742E-18  2.582997E-01  0.000000E+00
  8.388180E-01  1.832844E-02  5.000000E-01  8.472891E-01  1.845292E-02  0.000000E+00  8.301079E-03 -7.714346E-04  4.539962E-18  2.507060E-01  0.000000E+00
  8.515320E-01  1.710389E-02  5.000000E-01  8.601315E-01  1.721600E-02  0.000000E+00  8.503672E-03 -8.436475E-04  2.364197E-18  2.414956E-01  0.000000E+00
  8.636180E-01  1.587086E-02  5.000000E-01  8.723396E-01  1.597052E-02  0.000000E+00  8.708865E-03 -9.086722E-04  5.834782E-19  2.315276E-01  0.000000E+00
  8.750810E-01  1.464889E-02  5.000000E-01  8.839183E-01  1.473622E-02  0.000000E+00  8.909831E-03 -9.659705E-04 -1.120814E-18  2.211843E-01  0.000000E+00
  8.859290E-01  1.345354E-02  5.000000E-01  8.948759E-01  1.352879E-02  0.000000E+00  9.102312E-03 -1.015810E-03 -1.955667E-18  2.107456E-01  0.000000E+00
  8.961710E-01  1.229644E-02  5.000000E-01  9.052213E-01  1.236000E-02  0.000000E+00  9.284323E-03 -1.058860E-03 -1.481066E-18  2.004305E-01  0.000000E+00
  9.058170E-01  1.118620E-02  5.000000E-01  9.149647E-01  1.123856E-02  0.000000E+00  9.455561E-03 -1.095929E-03 -5.634080E-19  1.903669E-01  0.000000E+00
  9.148770E-01  1.012895E-02  5.000000E-01  9.241162E-01  1.017062E-02  0.000000E+00  9.616450E-03 -1.127748E-03  1.047129E-18  1.806090E-01  0.000000E+00
  9.148770E-01  1.012895E-02  5.000000E-01  9.241162E-01  1.017062E-02  0.000000E+00  9.616450E-03 -1.127748E-03  1.047129E-18  1.806090E-01  0.000000E+00
  9.233640E-01  9.128832E-03  5.000000E-01  9.326889E-01  9.160408E-03  0.000000E+00  9.767845E-03 -1.155118E-03  6.499043E-19  1.712138E-01  0.000000E+00
  9.312880E-01  8.188527E-03  5.000000E-01  9.406930E-01  8.210607E-03  0.000000E+00  9.911139E-03 -1.178863E-03 -3.069876E-18  1.622277E-01  0.000000E+00
  9.386620E-01  7.309428E-03  5.000000E-01  9.481414E-01  7.322630E-03  0.000000E+00  1.004783E-02 -1.199706E-03 -6.279218E-18  1.536444E-01  0.000000E+00
  9.454960E-01  6.492206E-03  5.000000E-01  9.550444E-01  6.497155E-03  0.000000E+00  1.017898E-02 -1.218163E-03  3.046171E-20  1.454329E-01  0.000000E+00
  9.518040E-01  5.736730E-03  5.000000E-01  9.614161E-01  5.734050E-03  0.000000E+00  1.030580E-02 -1.234777E-03  1.735429E-17  1.376033E-01  0.000000E+00
  9.575950E-01  5.042610E-03  5.000000E-01  9.672656E-01  5.032920E-03  0.000000E+00  1.043043E-02 -1.250178E-03  2.758915E-17  1.301445E-01  0.000000E+00
  9.628810E-01  4.409048E-03  5.000000E-01  9.726050E-01  4.392960E-03  0.000000E+00  1.055676E-02 -1.265065E-03 -3.102651E-17  1.230268E-01  0.000000E+00
  9.676710E-01  3.835139E-03  5.000000E-01  9.774434E-01  3.813255E-03  0.000000E+00  1.069148E-02 -1.280479E-03 -2.160610E-16  1.162418E-01  0.000000E+00
  9.719750E-01  3.319856E-03  5.000000E-01  9.817908E-01  3.292769E-03  0.000000E+00  1.084341E-02 -1.297563E-03 -3.088801E-16  1.097821E-01  0.000000E+00
  9.758020E-01  2.862128E-03  5.000000E-01  9.856565E-01  2.830418E-03  0.000000E+00  1.101622E-02 -1.316876E-03  3.736653E-16  1.036569E-01  0.000000E+00
  9.791590E-01  2.460967E-03  5.000000E-01  9.890474E-01  2.425206E-03  0.000000E+00  1.118844E-02 -1.336159E-03  1.979752E-15  9.773075E-02  0.000000E+00
  9.820540E-01  2.115389E-03  5.000000E-01  9.919716E-01  2.076137E-03  0.000000E+00  1.129419E-02 -1.348599E-03  2.098023E-15  9.234149E-02  0.000000E+00
  9.844930E-01  1.824539E-03  5.000000E-01  9.944353E-01  1.782351E-03  0.000000E+00  1.121108E-02 -1.336573E-03 -2.554951E-15  8.837075E-02  0.000000E+00
  9.864820E-01  1.587632E-03  5.000000E-01  9.964443E-01  1.543050E-03  0.000000E+00  1.063282E-02 -1.254978E-03 -7.948914E-15  8.220729E-02  0.000000E+00
  9.880240E-01  1.404066E-03  5.000000E-01  9.980019E-01  1.357631E-03  0.000000E+00  9.079712E-03 -1.088914E-03 -1.414053E-15  6.792381E-02  0.000000E+00
  9.891220E-01  1.273309E-03  5.000000E-01  9.991110E-01  1.225554E-03  0.000000E+00  8.343839E-03 -1.106652E-03  1.692881E-14  8.458787E-02  0.000000E+00
  9.897810E-01  1.194992E-03  5.000000E-01  9.997767E-01  1.146446E-03  0.000000E+00  1.563777E-02 -6.649271E-04  1.266534E-14  1.780937E-01  0.000000E+00
  9.900000E-01  1.168923E-03  5.000000E-01  9.999979E-01  1.120113E-03  0.000000E+00  1.309004E-02 -1.661292E-03 -4.328777E-14 -6.190573E-02  0.000000E+00
  9.900000E-01  1.355144E-03  5.000000E-01  9.999979E-01  1.308215E-03  0.000000E+00  1.212001E-03 -1.360384E-02 -8.739395E-14 -2.045371E-01  0.000000E+00
  9.900000E-01  1.541355E-03  5.000000E-01  9.999979E-01  1.496306E-03  0.000000E+00 -7.382548E-04 -1.429371E-02 -8.257491E-14 -2.463185E-02  0.000000E+00
  9.900000E-01  1.727576E-03  5.000000E-01  9.999979E-01  1.684408E-03  0.000000E+00 -4.675752E-04  3.462765E-03 -5.481819E-14 -3.389943E-02  0.000000E+00
  9.900000E-01  1.913796E-03  5.000000E-01  9.999979E-01  1.872509E-03  0.000000E+00  8.128691E-04  3.548785E-03 -1.239856E-14 -1.578118E-01  0.000000E+00
  9.900000E-01  2.100017E-03  5.000000E-01  9.999979E-01  2.060611E-03  0.000000E+00  8.234275E-03 -4.608071E-03  1.564455E-14 -5.971640E-02  0.000000E+00
  9.900000E-01  2.100017E-03  5.000000E-01  9.999979E-01  2.060611E-03  0.000000E+00  8.234275E-03 -4.608071E-03  1.564455E-14 -5.971640E-02  0.000000E+00
  9.897920E-01  2.143405E-03  5.000000E-01  9.997878E-01  2.104436E-03  0.000000E+00  9.101142E-03 -2.732262E-03  1.829867E-14  8.422223E-02  0.000000E+00
  9.891660E-01  2.273477E-03  5.000000E-01  9.991555E-01  2.235822E-03  0.000000E+00  3.397556E-03 -6.166321E-04  1.009003E-14  1.255491E-02  0.000000E+00
  9.881230E-01  2.489977E-03  5.000000E-01  9.981019E-01  2.454508E-03  0.000000E+00  3.262984E-03 -6.721355E-04  1.611560E-15  4.035546E-05  0.000000E+00
  9.866580E-01  2.792497E-03  5.000000E-01  9.966221E-01  2.760083E-03  0.000000E+00  3.867084E-03 -8.049265E-04 -2.410867E-15  6.437757E-03  0.000000E+00
  9.847700E-01  3.180427E-03  5.000000E-01  9.947151E-01  3.151931E-03  0.000000E+00  4.040791E-03 -8.272678E-04 -1.904616E-15  4.534063E-03  0.000000E+00
  9.824550E-01  3.653013E-03  5.000000E-01  9.923767E-01  3.629289E-03  0.000000E+00  4.104044E-03 -8.334330E-04 -2.838166E-16 -8.870466E-04  0.000000E+00
  9.797070E-01  4.209304E-03  5.000000E-01  9.896009E-01  4.191199E-03  0.000000E+00  4.197104E-03 -8.457398E-04  3.595016E-16 -6.901187E-03  0.000000E+00
  9.765220E-01  4.848187E-03  5.000000E-01  9.863838E-01  4.836533E-03  0.000000E+00  4.331491E-03 -8.641729E-04  2.497484E-16 -1.385844E-02  0.000000E+00
  9.728930E-01  5.568381E-03  5.000000E-01  9.827181E-01  5.564001E-03  0.000000E+00  4.505877E-03 -8.887221E-04  5.870825E-17 -2.183810E-02  0.000000E+00
  9.688130E-01  6.368414E-03  5.000000E-01  9.785969E-01  6.372114E-03  0.000000E+00  4.714044E-03 -9.180393E-04 -1.153573E-17 -3.064882E-02  0.000000E+00
  9.642740E-01  7.246681E-03  5.000000E-01  9.740121E-01  7.259249E-03  0.000000E+00  4.946006E-03 -9.498730E-04 -1.697194E-17 -4.010585E-02  0.000000E+00
  9.592670E-01  8.201423E-03  5.000000E-01  9.689545E-01  8.223634E-03  0.000000E+00  5.192816E-03 -9.823693E-04 -1.127094E-17 -5.013152E-02  0.000000E+00
  9.537850E-01  9.230742E-03  5.000000E-01  9.634171E-01  9.263348E-03  0.000000E+00  5.448095E-03 -1.014101E-03 -5.402806E-18 -6.056646E-02  0.000000E+00
  9.478160E-01  1.033262E-02  5.000000E-01  9.573879E-01  1.037636E-02  0.000000E+00  5.706837E-03 -1.044069E-03 -1.802535E-18 -7.130151E-02  0.000000E+00
  9.413520E-01  1.150507E-02  5.000000E-01  9.508586E-01  1.156064E-02  0.000000E+00  5.965268E-03 -1.071644E-03 -4.031771E-19 -8.223258E-02  0.000000E+00
  9.343800E-01  1.274607E-02  5.000000E-01  9.438162E-01  1.281418E-02  0.000000E+00  6.220033E-03 -1.096357E-03  6.412226E-19 -9.323162E-02  0.000000E+00
  9.268920E-01  1.405346E-02  5.000000E-01  9.362526E-01  1.413477E-02  0.000000E+00  6.468089E-03 -1.117916E-03  1.142508E-18 -1.042328E-01  0.000000E+00
  9.188750E-01  1.542553E-02  5.000000E-01  9.281546E-01  1.552070E-02  0.000000E+00  6.706764E-03 -1.136157E-03  1.114655E-18 -1.151275E-01  0.000000E+00
  9.103190E-01  1.686060E-02  5.000000E-01  9.195122E-01  1.697026E-02  0.000000E+00  6.933447E-03 -1.151106E-03  7.598946E-19 -1.258570E-01  0.000000E+00
  9.012130E-01  1.835740E-02  5.000000E-01  9.103142E-01  1.848217E-02  0.000000E+00  7.145913E-03 -1.162842E-03 -7.824900E-20 -1.363603E-01  0.000000E+00
  8.915460E-01  1.991503E-02  5.000000E-01  9.005496E-01  2.005554E-02  0.000000E+00  7.342370E-03 -1.171701E-03  1.011146E-18 -1.466270E-01  0.000000E+00
  8.813080E-01  2.153337E-02  5.000000E-01  8.902082E-01  2.169022E-02  0.000000E+00  7.521768E-03 -1.178206E-03  2.759805E-18 -1.566663E-01  0.000000E+00
  8.704900E-01  2.321279E-02  5.000000E-01  8.792810E-01  2.338659E-02  0.000000E+00  7.683775E-03 -1.182992E-03  2.023582E-18 -1.665070E-01  0.000000E+00
  8.704900E-01  2.321279E-02  5.000000E-01  8.792810E-01  2.338659E-02  0.000000E+00  7.683775E-03 -1.182992E-03  2.023582E-18 -1.665070E-01  0.000000E+00
  8.590830E-01  2.495468E-02  5.000000E-01  8.677588E-01  2.514608E-02  0.000000E+00  7.829141E-03 -1.187051E-03 -5.103801E-19 -1.762719E-01  0.000000E+00
  8.470810E-01  2.676162E-02  5.000000E-01  8.556356E-01  2.697127E-02  0.000000E+00  7.960454E-03 -1.191492E-03 -2.763361E-18 -1.861536E-01  0.000000E+00
  8.344780E-01  2.863716E-02  5.000000E-01  8.429053E-01  2.886575E-02  0.000000E+00  8.082274E-03 -1.197363E-03 -2.732416E-18 -1.963813E-01  0.000000E+00
  8.212700E-01  3.058518E-02  5.000000E-01  8.295639E-01  3.083344E-02  0.000000E+00  8.201531E-03 -1.205617E-03 -1.203976E-18 -2.073540E-01  0.000000E+00
  8.074550E-01  3.260909E-02  5.000000E-01  8.156094E-01  3.287779E-02  0.000000E+00  8.328356E-03 -1.216822E-03 -9.472511E-19 -2.195885E-01  0.000000E+00
  7.930350E-01  3.470999E-02  5.000000E-01  8.010438E-01  3.499990E-02  0.000000E+00  8.473929E-03 -1.230334E-03 -7.486513E-19 -2.332427E-01  0.000000E+00
  7.780130E-01  3.688368E-02  5.000000E-01  7.858700E-01  3.719555E-02  0.000000E+00  8.644522E-03 -1.244176E-03 -7.989061E-20 -2.478982E-01  0.000000E+00
  7.623950E-01  3.911976E-02  5.000000E-01  7.700943E-01  3.945422E-02  0.000000E+00  8.839137E-03 -1.257124E-03  9.460665E-19 -2.633716E-01  0.000000E+00
  7.461930E-01  4.140883E-02  5.000000E-01  7.537287E-01  4.176640E-02  0.000000E+00  9.054225E-03 -1.268884E-03  1.969741E-18 -2.797429E-01  0.000000E+00
  7.294180E-01  4.374099E-02  5.000000E-01  7.367843E-01  4.412211E-02  0.000000E+00  9.286484E-03 -1.278844E-03  7.636018E-19 -2.968925E-01  0.000000E+00
  7.120900E-01  4.610496E-02  5.000000E-01  7.192813E-01  4.650995E-02  0.000000E+00  9.532382E-03 -1.286028E-03  1.785474E-19 -3.146766E-01  0.000000E+00
  6.942280E-01  4.848836E-02  5.000000E-01  7.012389E-01  4.891742E-02  0.000000E+00  9.788441E-03 -1.289638E-03 -7.027703E-20 -3.329726E-01  0.000000E+00
  6.758590E-01  5.087834E-02  5.000000E-01  6.826844E-01  5.133154E-02  0.000000E+00  1.005153E-02 -1.289311E-03 -1.843365E-18 -3.516764E-01  0.000000E+00
  6.570120E-01  5.326206E-02  5.000000E-01  6.636471E-01  5.373933E-02  0.000000E+00  1.031912E-02 -1.284921E-03 -4.410934E-18 -3.707242E-01  0.000000E+00
  6.377220E-01  5.562716E-02  5.000000E-01  6.441623E-01  5.612831E-02  0.000000E+00  1.058975E-02 -1.276685E-03 -7.283295E-18 -3.901650E-01  0.000000E+00
  6.180260E-01  5.796231E-02  5.000000E-01  6.242674E-01  5.848704E-02  0.000000E+00  1.086371E-02 -1.264820E-03 -7.257627E-18 -4.101153E-01  0.000000E+00
  5.979670E-01  6.025588E-02  5.000000E-01  6.040058E-01  6.080378E-02  0.000000E+00  1.114315E-02 -1.249319E-03 -4.298121E-18 -4.307837E-01  0.000000E+00
  5.775910E-01  6.249589E-02  5.000000E-01  5.834240E-01  6.306641E-02  0.000000E+00  1.143187E-02 -1.229877E-03 -1.629853E-18 -4.523649E-01  0.000000E+00
  5.569470E-01  6.466943E-02  5.000000E-01  5.625715E-01  6.526190E-02  0.000000E+00  1.173356E-02 -1.205403E-03  9.832480E-19 -4.747655E-01  0.000000E+00
  5.360860E-01  6.676055E-02  5.000000E-01  5.414999E-01  6.737414E-02  0.000000E+00  1.204948E-02 -1.174739E-03  4.363571E-18 -4.978542E-01  0.000000E+00
  5.150640E-01  6.875368E-02  5.000000E-01  5.202656E-01  6.938740E-02  0.000000E+00  1.237898E-02 -1.137327E-03  4.639647E-18 -5.216695E-01  0.000000E+00
  4.939370E-01  7.063424E-02  5.000000E-01  4.989252E-01  7.128695E-02  0.000000E+00  1.272120E-02 -1.092600E-03  2.744832E-18 -5.462203E-01  0.000000E+00
  4.727610E-01  7.238850E-02  5.000000E-01  4.775354E-01  7.305892E-02  0.000000E+00  1.307541E-02 -1.039895E-03  4.644976E-18 -5.714952E-01  0.000000E+00
  5.770140E-06 -5.191220E-05  5.000000E-01  5.829536E-06 -1.130510E-04  0.000000E+00  3.753025E-03 -2.179985E-02 -5.598930E-13  9.104385E-01  0.000000E+00
  9.104010E-05 -3.816902E-04  5.000000E-01  9.196063E-05 -4.461593E-04  0.000000E+00  1.999818E-02 -3.479774E-02 -4.925894E-13  9.168946E-01  0.000000E+00
  4.796980E-04 -8.882551E-04  5.000000E-01  4.845435E-04 -9.578400E-04  0.000000E+00  3.856632E-02 -3.412644E-02 -3.284299E-13  6.046841E-01  0.000000E+00
  1.456590E-03 -1.466619E-03  5.000000E-01  1.471301E-03 -1.542045E-03  0.000000E+00  4.178883E-02 -1.998622E-02 -1.497622E-13  2.725601E-01  0.000000E+00
  3.096410E-03 -2.016029E-03  5.000000E-01  3.127681E-03 -2.097003E-03  0.000000E+00  3.422941E-02 -9.819541E-03 -3.622699E-14  1.587226E-01  0.000000E+00
  5.335170E-03 -2.515190E-03  5.000000E-01  5.389050E-03 -2.601205E-03  0.000000E+00  2.736102E-02 -5.288103E-03  3.688443E-15  1.419649E-01  0.000000E+00
  8.129670E-03 -2.958430E-03  5.000000E-01  8.211772E-03 -3.048921E-03  0.000000E+00  2.316246E-02 -3.159444E-03  6.107914E-15  1.204765E-01  0.000000E+00
  1.145600E-02 -3.327987E-03  5.000000E-01  1.157169E-02 -3.422210E-03  0.000000E+00  1.998390E-02 -1.743497E-03  1.568273E-15  8.457936E-02  0.000000E+00
  1.529970E-02 -3.557368E-03  5.000000E-01  1.545421E-02 -3.653908E-03  0.000000E+00  1.658615E-02 -5.472762E-04 -1.568338E-16  4.628996E-02  0.000000E+00
  1.962420E-02 -3.554792E-03  5.000000E-01  1.982238E-02 -3.651306E-03  0.000000E+00  1.304684E-02  2.387152E-04  1.722044E-16  3.832381E-02  0.000000E+00
  2.439810E-02 -3.343144E-03  5.000000E-01  2.464449E-02 -3.437520E-03  0.000000E+00  1.066129E-02  4.662186E-04  8.411370E-16  9.144553E-02  0.000000E+00
  2.966100E-02 -3.113591E-03  5.000000E-01  2.996054E-02 -3.205649E-03  0.000000E+00  1.023396E-02  3.994119E-04  1.206643E-15  1.568806E-01  0.000000E+00
  3.543640E-02 -2.929637E-03  5.000000E-01  3.579427E-02 -3.019837E-03  0.000000E+00  1.097472E-02  3.133476E-04  1.161038E-15  1.750844E-01  0.000000E+00
  4.172970E-02 -2.772249E-03  5.000000E-01  4.215112E-02 -2.860861E-03  0.000000E+00  1.173565E-02  2.900303E-04  8.239132E-16  1.612304E-01  0.000000E+00
  4.854440E-02 -2.602927E-03  5.000000E-01  4.903464E-02 -2.689828E-03  0.000000E+00  1.205758E-02  3.415350E-04  4.158338E-16  1.424870E-01  0.000000E+00
  5.588220E-02 -2.367915E-03  5.000000E-01  5.644655E-02 -2.452443E-03  0.000000E+00  1.200584E-02  4.324945E-04  1.078262E-16  1.305321E-01  0.000000E+00
  6.375220E-02 -2.050608E-03  5.000000E-01  6.439603E-02 -2.131932E-03  0.000000E+00  1.181490E-02  5.092656E-04 -4.750371E-17  1.284760E-01  0.000000E+00
  7.217040E-02 -1.663308E-03  5.000000E-01  7.289924E-02 -1.740720E-03  0.000000E+00  1.167120E-02  5.525130E-04 -8.602624E-17  1.317757E-01  0.000000E+00
  8.115500E-02 -1.226721E-03  5.000000E-01  8.197457E-02 -1.299724E-03  0.000000E+00  1.162434E-02  5.767978E-04 -6.880976E-17  1.339199E-01  0.000000E+00
  9.072040E-02 -7.436292E-04  5.000000E-01  9.163657E-02 -8.117535E-04  0.000000E+00  1.162419E-02  6.032188E-04 -4.092229E-17  1.318366E-01  0.000000E+00
  1.008780E-01 -2.025323E-04  5.000000E-01  1.018968E-01 -2.651921E-04  0.000000E+00  1.161119E-02  6.392617E-04 -1.920072E-17  1.276026E-01  0.000000E+00
  1.116380E-01  4.096310E-04  5.000000E-01  1.127654E-01  3.531532E-04  0.000000E+00  1.155551E-02  6.849079E-04 -7.260005E-18  1.236462E-01  0.000000E+00
  1.230100E-01  1.110970E-03  5.000000E-01  1.242523E-01  1.061575E-03  0.000000E+00  1.143870E-02  7.397008E-04 -4.110384E-18  1.206826E-01  0.000000E+00
  1.350030E-01  1.922822E-03  5.000000E-01  1.363664E-01  1.881625E-03  0.000000E+00  1.123999E-02  8.015102E-04 -5.411859E-18  1.192995E-01  0.000000E+00
  1.350030E-01  1.922822E-03  5.000000E-01  1.363664E-01  1.881625E-03  0.000000E+00  1.123999E-02  8.015102E-04 -5.411859E-18  1.192995E-01  0.000000E+00
  1.476220E-01  2.869258E-03  5.000000E-01  1.491128E-01  2.837619E-03  0.000000E+00  1.094230E-02  8.663230E-04 -3.724532E-18  1.204479E-01  0.000000E+00
  1.608730E-01  3.975567E-03  5.000000E-01  1.624976E-01  3.955101E-03  0.000000E+00  1.054363E-02  9.284886E-04  4.525867E-18  1.252689E-01  0.000000E+00
  1.747560E-01  5.264599E-03  5.000000E-01  1.765208E-01  5.257151E-03  0.000000E+00  1.006423E-02  9.802676E-04  1.096933E-17  1.346102E-01  0.000000E+00
  1.892730E-01  6.747856E-03  5.000000E-01  1.911844E-01  6.755387E-03  0.000000E+00  9.547488E-03  1.010111E-03  1.080161E-17  1.487773E-01  0.000000E+00
  2.044180E-01  8.409718E-03  5.000000E-01  2.064824E-01  8.434032E-03  0.000000E+00  9.061254E-03  1.004475E-03  5.962131E-18  1.687081E-01  0.000000E+00
  2.201880E-01  1.017821E-02  5.000000E-01  2.224116E-01  1.022038E-02  0.000000E+00  8.666446E-03  9.655128E-04  1.387176E-18  1.918402E-01  0.000000E+00
  2.365750E-01  1.198905E-02  5.000000E-01  2.389641E-01  1.204951E-02  0.000000E+00  8.370643E-03  9.114630E-04 -5.773213E-19  2.121385E-01  0.000000E+00
  2.535710E-01  1.380938E-02  5.000000E-01  2.561318E-01  1.388823E-02  0.000000E+00  8.144503E-03  8.538285E-04 -7.395965E-19  2.279999E-01  0.000000E+00
  2.711570E-01  1.561244E-02  5.000000E-01  2.738954E-01  1.570950E-02  0.000000E+00  7.965726E-03  7.944130E-04  7.396630E-19  2.413599E-01  0.000000E+00
  2.893100E-01  1.737180E-02  5.000000E-01  2.922317E-01  1.748662E-02  0.000000E+00  7.828457E-03  7.329198E-04  1.246913E-18  2.533967E-01  0.000000E+00
  3.080020E-01  1.905925E-02  5.000000E-01  3.111125E-01  1.919111E-02  0.000000E+00  7.728953E-03  6.705094E-04  1.384093E-19  2.637749E-01  0.000000E+00
  3.271950E-01  2.065543E-02  5.000000E-01  3.304993E-01  2.080341E-02  0.000000E+00  7.658046E-03  6.088865E-04  6.030050E-19  2.720880E-01  0.000000E+00
  3.468470E-01  2.214548E-02  5.000000E-01  3.503498E-01  2.230851E-02  0.000000E+00  7.605217E-03  5.490454E-04  1.766715E-18  2.786540E-01  0.000000E+00
  3.669110E-01  2.352064E-02  5.000000E-01  3.706164E-01  2.369756E-02  0.000000E+00  7.561882E-03  4.919405E-04  2.193038E-18  2.838070E-01  0.000000E+00
  3.873360E-01  2.477772E-02  5.000000E-01  3.912477E-01  2.496734E-02  0.000000E+00  7.522330E-03  4.376112E-04  2.682951E-18  2.879105E-01  0.000000E+00
  4.080670E-01  2.591366E-02  5.000000E-01  4.121880E-01  2.611474E-02  0.000000E+00  7.485014E-03  3.847913E-04  2.539381E-18  2.914579E-01  0.000000E+00
  4.290470E-01  2.692102E-02  5.000000E-01  4.333799E-01  2.713228E-02  0.000000E+00  7.451429E-03  3.324134E-04  2.388467E-18  2.946324E-01  0.000000E+00
  4.502140E-01  2.779283E-02  5.000000E-01  4.547607E-01  2.801290E-02  0.000000E+00  7.423161E-03  2.803651E-04  3.074071E-18  2.972736E-01  0.000000E+00
  4.715070E-01  2.852388E-02  5.000000E-01  4.762687E-01  2.875133E-02  0.000000E+00  7.401116E-03  2.287426E-04  2.554871E-18  2.992989E-01  0.000000E+00
  4.928620E-01  2.911048E-02  5.000000E-01  4.978393E-01  2.934385E-02  0.000000E+00  7.386524E-03  1.773292E-04  2.769456E-18  3.007595E-01  0.000000E+00
  5.142140E-01  2.954911E-02  5.000000E-01  5.194070E-01  2.978691E-02  0.000000E+00  7.381491E-03  1.255198E-04  2.728393E-18  3.017348E-01  0.000000E+00
  5.355000E-01  2.983581E-02  5.000000E-01  5.409079E-01  3.007650E-02  0.000000E+00  7.388101E-03  7.294682E-05 -4.533005E-19  3.021789E-01  0.000000E+00
  5.566560E-01  2.996871E-02  5.000000E-01  5.622776E-01  3.021074E-02  0.000000E+00  7.406909E-03  1.998845E-05 -1.319199E-18  3.019318E-01  0.000000E+00
  4.727610E-01  7.238850E-02  5.000000E-01  4.775354E-01  7.305892E-02  0.000000E+00  1.307541E-02 -1.039895E-03  4.644976E-18 -5.714952E-01  0.000000E+00
  4.515970E-01  7.400344E-02  5.000000E-01  4.561576E-01  7.469017E-02  0.000000E+00  1.344107E-02 -9.784927E-04  9.485762E-18 -5.974367E-01  0.000000E+00
  4.305020E-01  7.546722E-02  5.000000E-01  4.348496E-01  7.616874E-02  0.000000E+00  1.381793E-02 -9.078109E-04  1.321792E-17 -6.241062E-01  0.000000E+00
  4.095340E-01  7.676937E-02  5.000000E-01  4.136698E-01  7.748403E-02  0.000000E+00  1.420785E-02 -8.277766E-04  1.527211E-17 -6.520331E-01  0.000000E+00
  3.887520E-01  7.790221E-02  5.000000E-01  3.926780E-01  7.862832E-02  0.000000E+00  1.461749E-02 -7.371915E-04  1.885425E-17 -6.818215E-01  0.000000E+00
  3.682080E-01  7.885655E-02  5.000000E-01  3.719265E-01  7.959230E-02  0.000000E+00  1.505618E-02 -6.323205E-04  2.530421E-17 -7.135316E-01  0.000000E+00
  3.479570E-01  7.961937E-02  5.000000E-01  3.514710E-01  8.036282E-02  0.000000E+00  1.552996E-02 -5.083369E-04  3.065480E-17 -7.467468E-01  0.000000E+00
  3.280470E-01  8.017580E-02  5.000000E-01  3.313599E-01  8.092487E-02  0.000000E+00  1.603889E-02 -3.620956E-04  3.478795E-17 -7.811569E-01  0.000000E+00
  3.085240E-01  8.051495E-02  5.000000E-01  3.116397E-01  8.126745E-02  0.000000E+00  1.658035E-02 -1.921776E-04  3.884969E-17 -8.167121E-01  0.000000E+00
  2.894320E-01  8.062979E-02  5.000000E-01  2.923549E-01  8.138345E-02  0.000000E+00  1.715307E-02  4.226908E-06  4.226338E-17 -8.534850E-01  0.000000E+00
  2.708110E-01  8.051300E-02  5.000000E-01  2.735459E-01  8.126548E-02  0.000000E+00  1.776253E-02  2.316882E-04  4.424004E-17 -8.929674E-01  0.000000E+00
  2.526960E-01  8.015720E-02  5.000000E-01  2.552479E-01  8.090608E-02  0.000000E+00  1.843701E-02  4.974576E-04  4.340119E-17 -9.388452E-01  0.000000E+00
  2.351200E-01  7.955683E-02  5.000000E-01  2.374944E-01  8.029965E-02  0.000000E+00  1.923360E-02  8.272467E-04  4.142461E-17 -9.917269E-01  0.000000E+00
  2.181120E-01  7.868137E-02  5.000000E-01  2.203147E-01  7.941535E-02  0.000000E+00  2.019052E-02  1.267001E-03  3.884109E-17 -1.045495E+00  0.000000E+00
  2.017010E-01  7.747624E-02  5.000000E-01  2.037380E-01  7.819805E-02  0.000000E+00  2.127415E-02  1.844301E-03  3.541537E-17 -1.094431E+00  0.000000E+00
  1.859190E-01  7.590919E-02  5.000000E-01  1.877966E-01  7.661518E-02  0.000000E+00  2.240652E-02  2.559849E-03  3.015186E-17 -1.135671E+00  0.000000E+00
  1.707920E-01  7.396576E-02  5.000000E-01  1.725168E-01  7.465211E-02  0.000000E+00  2.350831E-02  3.411336E-03  2.297171E-17 -1.164920E+00  0.000000E+00
  1.563470E-01  7.164033E-02  5.000000E-01  1.579259E-01  7.230320E-02  0.000000E+00  2.449742E-02  4.389709E-03  1.824946E-17 -1.176839E+00  0.000000E+00
  1.426070E-01  6.893799E-02  5.000000E-01  1.440472E-01  6.957357E-02  0.000000E+00  2.528701E-02  5.463188E-03  1.747355E-17 -1.167523E+00  0.000000E+00
  1.295900E-01  6.588082E-02  5.000000E-01  1.308987E-01  6.648552E-02  0.000000E+00  2.580341E-02  6.575915E-03  1.635149E-17 -1.135976E+00  0.000000E+00
  1.173060E-01  6.250884E-02  5.000000E-01  1.184907E-01  6.307949E-02  0.000000E+00  2.600803E-02  7.666714E-03  1.867246E-17 -1.083248E+00  0.000000E+00
  1.057600E-01  5.887228E-02  5.000000E-01  1.068281E-01  5.940621E-02  0.000000E+00  2.590140E-02  8.684120E-03  2.413193E-17 -1.011562E+00  0.000000E+00
  9.495290E-02  5.502775E-02  5.000000E-01  9.591182E-02  5.552285E-02  0.000000E+00  2.551738E-02  9.588138E-03  2.659601E-17 -9.245753E-01  0.000000E+00
  8.487680E-02  5.103636E-02  5.000000E-01  8.573396E-02  5.149116E-02  0.000000E+00  2.491340E-02  1.035669E-02  3.750326E-17 -8.255526E-01  0.000000E+00
  8.487680E-02  5.103636E-02  5.000000E-01  8.573396E-02  5.149116E-02  0.000000E+00  2.491340E-02  1.035669E-02  3.750326E-17 -8.255526E-01  0.000000E+00
  7.552090E-02  4.695958E-02  5.000000E-01  7.628358E-02  4.737320E-02  0.000000E+00  2.414014E-02  1.097890E-02  5.803073E-17 -7.156551E-01  0.000000E+00
  6.687020E-02  4.285589E-02  5.000000E-01  6.754551E-02  4.322807E-02  0.000000E+00  2.322181E-02  1.142483E-02  7.470119E-17 -5.975461E-01  0.000000E+00
  5.889940E-02  3.878877E-02  5.000000E-01  5.949422E-02  3.911988E-02  0.000000E+00  2.219223E-02  1.165937E-02  7.526652E-17 -4.782574E-01  0.000000E+00
  5.157140E-02  3.482259E-02  5.000000E-01  5.209221E-02  3.511364E-02  0.000000E+00  2.114082E-02  1.170711E-02  6.520575E-17 -3.659539E-01  0.000000E+00
  4.484650E-02  3.101003E-02  5.000000E-01  4.529940E-02  3.126258E-02  0.000000E+00  2.020392E-02  1.168449E-02  5.982687E-17 -2.648577E-01  0.000000E+00
  3.869820E-02  2.738135E-02  5.000000E-01  3.908901E-02  2.759726E-02  0.000000E+00  1.951225E-02  1.175322E-02  5.431108E-17 -1.739820E-01  0.000000E+00
  3.311550E-02  2.394830E-02  5.000000E-01  3.344993E-02  2.412954E-02  0.000000E+00  1.912505E-02  1.202943E-02  4.287239E-17 -8.806889E-02  0.000000E+00
  2.809130E-02  2.071824E-02  5.000000E-01  2.837499E-02  2.086685E-02  0.000000E+00  1.889762E-02  1.247584E-02  2.083908E-17  8.228402E-03  0.000000E+00
  2.362330E-02  1.769510E-02  5.000000E-01  2.386187E-02  1.781319E-02  0.000000E+00  1.843996E-02  1.274004E-02 -3.808154E-17  1.250328E-01  0.000000E+00
  1.966610E-02  1.490287E-02  5.000000E-01  1.986471E-02  1.499275E-02  0.000000E+00  1.753854E-02  1.234018E-02 -1.281789E-16  2.365828E-01  0.000000E+00
  1.609460E-02  1.239466E-02  5.000000E-01  1.625714E-02  1.245922E-02  0.000000E+00  1.651110E-02  1.137209E-02 -7.593995E-17  3.156721E-01  0.000000E+00
  1.282740E-02  1.018982E-02  5.000000E-01  1.295694E-02  1.023211E-02  0.000000E+00  1.593115E-02  1.053674E-02  6.071350E-16  3.648663E-01  0.000000E+00
  9.860990E-03  8.269074E-03  5.000000E-01  9.960576E-03  8.291968E-03  0.000000E+00  1.620285E-02  1.047276E-02  2.596944E-15  4.021892E-01  0.000000E+00
  7.251350E-03  6.586806E-03  5.000000E-01  7.324582E-03  6.592711E-03  0.000000E+00  1.740971E-02  1.143428E-02  5.675434E-15  4.422004E-01  0.000000E+00
  5.038810E-03  5.109865E-03  5.000000E-01  5.089697E-03  5.100855E-03  0.000000E+00  1.944820E-02  1.348934E-02  6.181280E-15  4.875532E-01  0.000000E+00
  3.239710E-03  3.821357E-03  5.000000E-01  3.272429E-03  3.799334E-03  0.000000E+00  2.197432E-02  1.678653E-02 -6.261659E-15  5.449249E-01  0.000000E+00
  1.861880E-03  2.712140E-03  5.000000E-01  1.880684E-03  2.678915E-03  0.000000E+00  2.372863E-02  2.113027E-02 -5.009869E-14  6.310708E-01  0.000000E+00
  9.013910E-04  1.781258E-03  5.000000E-01  9.104951E-04  1.738632E-03  0.000000E+00  2.171215E-02  2.431345E-02 -1.461893E-13  7.675959E-01  0.000000E+00
  3.295630E-04  1.037032E-03  5.000000E-01  3.328923E-04  9.868898E-04  0.000000E+00  1.312427E-02  1.966894E-02 -2.976010E-13  9.384171E-01  0.000000E+00
  7.194000E-05  4.946364E-04  5.000000E-01  7.266764E-05  4.390171E-04  0.000000E+00  2.332099E-03  4.309649E-04 -4.597367E-13  1.023000E+00  0.000000E+00
  4.516100E-06  1.683237E-04  5.000000E-01  4.562832E-06  1.094091E-04  0.000000E+00 -2.265677E-03 -2.161873E-02 -5.507085E-13  9.270046E-01  0.000000E+00
 -1.112850E-09  6.000850E-05  5.000000E-01  0.000000E+00  0.000000E+00  0.000000E+00 -1.308391E-03 -2.258595E-02 -5.651135E-13  8.271673E-01  0.000000E+00