 Title = "ADflow Slice Data"
Variables =  "CoordinateX"  "CoordinateY"  "CoordinateZ"  "XoC"  "YoC"  "ZoC" "VelocityX" "VelocityY" "VelocityZ" "CoefPressure" "Mach" 
Zone T= "Slice_0001 None Absolute Regular z = 0.50000000"
 Nodes =          192  Elements=          184  ZONETYPE=FELINESEG
 DATAPACKING=POINT
  5.566560E-01  2.995317E-02  5.000000E-01  5.622776E-01  3.019502E-02  0.000000E+00  7.408283E-03  2.061778E-05  2.904424E-18  3.017524E-01  0.000000E+00
  5.776220E-01  2.993690E-02  5.000000E-01  5.834553E-01  3.017858E-02  0.000000E+00  7.436465E-03 -3.156772E-05  3.058860E-18  3.007251E-01  0.000000E+00
  5.983370E-01  2.977732E-02  5.000000E-01  6.043795E-01  3.001739E-02  0.000000E+00  7.472712E-03 -8.250610E-05  2.620664E-18  2.989612E-01  0.000000E+00
  6.187480E-01  2.948418E-02  5.000000E-01  6.249967E-01  2.972129E-02  0.000000E+00  7.514749E-03 -1.319144E-04  1.608703E-18  2.966327E-01  0.000000E+00
  6.388030E-01  2.906850E-02  5.000000E-01  6.452542E-01  2.930141E-02  0.000000E+00  7.560824E-03 -1.798234E-04  2.368809E-18  2.938984E-01  0.000000E+00
  6.584530E-01  2.854153E-02  5.000000E-01  6.651026E-01  2.876912E-02  0.000000E+00  7.609234E-03 -2.261993E-04  5.087042E-18  2.908676E-01  0.000000E+00
  6.776550E-01  2.791509E-02  5.000000E-01  6.844985E-01  2.813635E-02  0.000000E+00  7.657141E-03 -2.706039E-04  6.071689E-18  2.875183E-01  0.000000E+00
  6.963720E-01  2.720304E-02  5.000000E-01  7.034046E-01  2.741712E-02  0.000000E+00  7.700820E-03 -3.129313E-04  5.059150E-18  2.839825E-01  0.000000E+00
  7.145680E-01  2.641675E-02  5.000000E-01  7.217843E-01  2.662289E-02  0.000000E+00  7.736898E-03 -3.534426E-04  3.834787E-18  2.804487E-01  0.000000E+00
  7.322140E-01  2.556716E-02  5.000000E-01  7.396085E-01  2.576471E-02  0.000000E+00  7.762960E-03 -3.919635E-04  3.126328E-18  2.769618E-01  0.000000E+00
  7.492860E-01  2.466536E-02  5.000000E-01  7.568529E-01  2.485381E-02  0.000000E+00  7.779469E-03 -4.280839E-04  2.558673E-18  2.736459E-01  0.000000E+00
  7.657630E-01  2.372230E-02  5.000000E-01  7.734963E-01  2.390122E-02  0.000000E+00  7.791027E-03 -4.620254E-04  1.248744E-18  2.703871E-01  0.000000E+00
  7.816300E-01  2.274810E-02  5.000000E-01  7.895236E-01  2.291718E-02  0.000000E+00  7.808535E-03 -4.986333E-04  2.664345E-19  2.672527E-01  0.000000E+00
  7.968740E-01  2.173841E-02  5.000000E-01  8.049215E-01  2.189730E-02  0.000000E+00  7.855914E-03 -5.490568E-04  8.800727E-19  2.652378E-01  0.000000E+00
  8.114890E-01  2.066463E-02  5.000000E-01  8.196841E-01  2.081268E-02  0.000000E+00  7.957301E-03 -6.170463E-04  1.019067E-18  2.631333E-01  0.000000E+00
  8.254710E-01  1.952313E-02  5.000000E-01  8.338073E-01  1.965965E-02  0.000000E+00  8.112278E-03 -6.941908E-04  1.375540E-19  2.583305E-01  0.000000E+00
  8.388180E-01  1.832904E-02  5.000000E-01  8.472891E-01  1.845349E-02  0.000000E+00  8.300760E-03 -7.714719E-04  2.081648E-19  2.507320E-01  0.000000E+00
  8.515320E-01  1.710439E-02  5.000000E-01  8.601315E-01  1.721648E-02  0.000000E+00  8.503422E-03 -8.436869E-04  8.546461E-19  2.415178E-01  0.000000E+00
  8.636180E-01  1.587127E-02  5.000000E-01  8.723396E-01  1.597091E-02  0.000000E+00  8.708670E-03 -9.087121E-04  2.305812E-18  2.315466E-01  0.000000E+00
  8.750810E-01  1.464923E-02  5.000000E-01  8.839183E-01  1.473652E-02  0.000000E+00  8.909678E-03 -9.660097E-04  1.853913E-18  2.212006E-01  0.000000E+00
  8.859290E-01  1.345381E-02  5.000000E-01  8.948759E-01  1.352904E-02  0.000000E+00  9.102195E-03 -1.015848E-03  8.733362E-19  2.107598E-01  0.000000E+00
  8.961710E-01  1.229666E-02  5.000000E-01  9.052213E-01  1.236019E-02  0.000000E+00  9.284235E-03 -1.058896E-03  8.432069E-19  2.004428E-01  0.000000E+00
  9.058170E-01  1.118638E-02  5.000000E-01  9.149647E-01  1.123870E-02  0.000000E+00  9.455498E-03 -1.095963E-03 -1.371080E-18  1.903777E-01  0.000000E+00
  9.148770E-01  1.012908E-02  5.000000E-01  9.241162E-01  1.017073E-02  0.000000E+00  9.616409E-03 -1.127780E-03 -1.020670E-18  1.806185E-01  0.000000E+00
  9.148770E-01  1.012908E-02  5.000000E-01  9.241162E-01  1.017073E-02  0.000000E+00  9.616409E-03 -1.127780E-03 -1.020670E-18  1.806185E-01  0.000000E+00
  9.233640E-01  9.128938E-03  5.000000E-01  9.326889E-01  9.160483E-03  0.000000E+00  9.767823E-03 -1.155148E-03  1.553715E-18  1.712222E-01  0.000000E+00
  9.312880E-01  8.188608E-03  5.000000E-01  9.406930E-01  8.210657E-03  0.000000E+00  9.911133E-03 -1.178891E-03  2.440371E-18  1.622351E-01  0.000000E+00
  9.386620E-01  7.309490E-03  5.000000E-01  9.481414E-01  7.322661E-03  0.000000E+00  1.004784E-02 -1.199732E-03  2.890871E-18  1.536509E-01  0.000000E+00
  9.454960E-01  6.492252E-03  5.000000E-01  9.550444E-01  6.497170E-03  0.000000E+00  1.017900E-02 -1.218188E-03  8.658313E-19  1.454387E-01  0.000000E+00
  9.518040E-01  5.736764E-03  5.000000E-01  9.614161E-01  5.734052E-03  0.000000E+00  1.030583E-02 -1.234800E-03 -1.257473E-17  1.376084E-01  0.000000E+00
  9.575950E-01  5.042634E-03  5.000000E-01  9.672656E-01  5.032913E-03  0.000000E+00  1.043048E-02 -1.250199E-03 -2.501836E-17  1.301491E-01  0.000000E+00
  9.628810E-01  4.409066E-03  5.000000E-01  9.726050E-01  4.392945E-03  0.000000E+00  1.055681E-02 -1.265085E-03  2.553271E-17  1.230309E-01  0.000000E+00
  9.676710E-01  3.835150E-03  5.000000E-01  9.774434E-01  3.813234E-03  0.000000E+00  1.069155E-02 -1.280498E-03  1.916542E-16  1.162455E-01  0.000000E+00
  9.719750E-01  3.319864E-03  5.000000E-01  9.817908E-01  3.292744E-03  0.000000E+00  1.084348E-02 -1.297581E-03  2.717628E-16  1.097855E-01  0.000000E+00
  9.758020E-01  2.862133E-03  5.000000E-01  9.856565E-01  2.830391E-03  0.000000E+00  1.101630E-02 -1.316893E-03 -3.528800E-16  1.036600E-01  0.000000E+00
  9.791590E-01  2.460970E-03  5.000000E-01  9.890474E-01  2.425177E-03  0.000000E+00  1.118853E-02 -1.336175E-03 -1.806847E-15  9.773353E-02  0.000000E+00
  9.820540E-01  2.115390E-03  5.000000E-01  9.919716E-01  2.076107E-03  0.000000E+00  1.129429E-02 -1.348615E-03 -1.880588E-15  9.234401E-02  0.000000E+00
  9.844930E-01  1.824540E-03  5.000000E-01  9.944353E-01  1.782319E-03  0.000000E+00  1.121118E-02 -1.336589E-03  2.399078E-15  8.837306E-02  0.000000E+00
  9.864820E-01  1.587632E-03  5.000000E-01  9.964443E-01  1.543019E-03  0.000000E+00  1.063293E-02 -1.254993E-03  7.283517E-15  8.220941E-02  0.000000E+00
  9.880240E-01  1.404066E-03  5.000000E-01  9.980019E-01  1.357599E-03  0.000000E+00  9.079814E-03 -1.088927E-03  1.117452E-15  6.792570E-02  0.000000E+00
  9.891220E-01  1.273309E-03  5.000000E-01  9.991110E-01  1.225522E-03  0.000000E+00  8.343931E-03 -1.106665E-03 -1.627417E-14  8.458974E-02  0.000000E+00
  9.897810E-01  1.194992E-03  5.000000E-01  9.997767E-01  1.146414E-03  0.000000E+00  1.563790E-02 -6.649370E-04 -1.402490E-14  1.780960E-01  0.000000E+00
  9.900000E-01  1.168923E-03  5.000000E-01  9.999979E-01  1.120081E-03  0.000000E+00  1.309013E-02 -1.661317E-03  3.587605E-14 -6.190469E-02  0.000000E+00
  9.900000E-01  1.355144E-03  5.000000E-01  9.999979E-01  1.308183E-03  0.000000E+00  1.212004E-03 -1.360397E-02  7.683310E-14 -2.045367E-01  0.000000E+00
  9.900000E-01  1.541355E-03  5.000000E-01  9.999979E-01  1.496274E-03  0.000000E+00 -7.382595E-04 -1.429394E-02  7.376077E-14 -2.463051E-02  0.000000E+00
  9.900000E-01  1.727576E-03  5.000000E-01  9.999979E-01  1.684376E-03  0.000000E+00 -4.675725E-04  3.462510E-03  4.986621E-14 -3.389840E-02  0.000000E+00
  9.900000E-01  1.913796E-03  5.000000E-01  9.999979E-01  1.872477E-03  0.000000E+00  8.128654E-04  3.548615E-03  1.356729E-14 -1.578100E-01  0.000000E+00
  9.900000E-01  2.100017E-03  5.000000E-01  9.999979E-01  2.060578E-03  0.000000E+00  8.234212E-03 -4.608086E-03 -9.926330E-15 -5.971504E-02  0.000000E+00
  9.900000E-01  2.100017E-03  5.000000E-01  9.999979E-01  2.060578E-03  0.000000E+00  8.234212E-03 -4.608086E-03 -9.926330E-15 -5.971504E-02  0.000000E+00
  9.897920E-01  2.143405E-03  5.000000E-01  9.997878E-01  2.104404E-03  0.000000E+00  9.101061E-03 -2.732240E-03 -1.315836E-14  8.422262E-02  0.000000E+00
  9.891660E-01  2.273477E-03  5.000000E-01  9.991555E-01  2.235790E-03  0.000000E+00  3.397501E-03 -6.166215E-04 -7.926694E-15  1.255582E-02  0.000000E+00
  9.881230E-01  2.489977E-03  5.000000E-01  9.981019E-01  2.454476E-03  0.000000E+00  3.262917E-03 -6.721219E-04 -1.416802E-15  4.118027E-05  0.000000E+00
  9.866580E-01  2.792497E-03  5.000000E-01  9.966221E-01  2.760051E-03  0.000000E+00  3.867010E-03 -8.049119E-04  1.978772E-15  6.438471E-03  0.000000E+00
  9.847700E-01  3.180428E-03  5.000000E-01  9.947151E-01  3.151900E-03  0.000000E+00  4.040716E-03 -8.272535E-04  1.609168E-15  4.534782E-03  0.000000E+00
  9.824550E-01  3.653014E-03  5.000000E-01  9.923767E-01  3.629259E-03  0.000000E+00  4.103968E-03 -8.334191E-04  2.308504E-16 -8.863577E-04  0.000000E+00
  9.797070E-01  4.209307E-03  5.000000E-01  9.896009E-01  4.191169E-03  0.000000E+00  4.197028E-03 -8.457263E-04 -3.256482E-16 -6.900583E-03  0.000000E+00
  9.765220E-01  4.848191E-03  5.000000E-01  9.863838E-01  4.836505E-03  0.000000E+00  4.331415E-03 -8.641603E-04 -2.260753E-16 -1.385794E-02  0.000000E+00
  9.728930E-01  5.568387E-03  5.000000E-01  9.827181E-01  5.563975E-03  0.000000E+00  4.505803E-03 -8.887107E-04 -5.294692E-17 -2.183775E-02  0.000000E+00
  9.688130E-01  6.368424E-03  5.000000E-01  9.785969E-01  6.372092E-03  0.000000E+00  4.713971E-03 -9.180293E-04  1.156417E-17 -3.064867E-02  0.000000E+00
  9.642740E-01  7.246695E-03  5.000000E-01  9.740121E-01  7.259232E-03  0.000000E+00  4.945936E-03 -9.498649E-04  1.526330E-17 -4.010596E-02  0.000000E+00
  9.592670E-01  8.201443E-03  5.000000E-01  9.689545E-01  8.223622E-03  0.000000E+00  5.192750E-03 -9.823634E-04  7.674182E-18 -5.013194E-02  0.000000E+00
  9.537850E-01  9.230770E-03  5.000000E-01  9.634171E-01  9.263344E-03  0.000000E+00  5.448032E-03 -1.014097E-03  1.611307E-18 -6.056726E-02  0.000000E+00
  9.478160E-01  1.033266E-02  5.000000E-01  9.573879E-01  1.037636E-02  0.000000E+00  5.706779E-03 -1.044068E-03 -1.821390E-18 -7.130277E-02  0.000000E+00
  9.413520E-01  1.150512E-02  5.000000E-01  9.508586E-01  1.156066E-02  0.000000E+00  5.965216E-03 -1.071647E-03 -2.507737E-18 -8.223446E-02  0.000000E+00
  9.343800E-01  1.274614E-02  5.000000E-01  9.438162E-01  1.281421E-02  0.000000E+00  6.219989E-03 -1.096364E-03 -2.446216E-18 -9.323428E-02  0.000000E+00
  9.268920E-01  1.405354E-02  5.000000E-01  9.362526E-01  1.413482E-02  0.000000E+00  6.468055E-03 -1.117927E-03 -1.064007E-18 -1.042364E-01  0.000000E+00
  9.188750E-01  1.542564E-02  5.000000E-01  9.281546E-01  1.552077E-02  0.000000E+00  6.706742E-03 -1.136173E-03  1.466314E-20 -1.151321E-01  0.000000E+00
  9.103190E-01  1.686073E-02  5.000000E-01  9.195122E-01  1.697036E-02  0.000000E+00  6.933440E-03 -1.151127E-03 -3.981804E-19 -1.258628E-01  0.000000E+00
  9.012130E-01  1.835756E-02  5.000000E-01  9.103142E-01  1.848230E-02  0.000000E+00  7.145924E-03 -1.162870E-03 -1.445462E-19 -1.363676E-01  0.000000E+00
  8.915460E-01  1.991523E-02  5.000000E-01  9.005496E-01  2.005571E-02  0.000000E+00  7.342403E-03 -1.171736E-03 -3.699005E-19 -1.466361E-01  0.000000E+00
  8.813080E-01  2.153362E-02  5.000000E-01  8.902082E-01  2.169043E-02  0.000000E+00  7.521829E-03 -1.178249E-03  6.088486E-19 -1.566775E-01  0.000000E+00
  8.704900E-01  2.321308E-02  5.000000E-01  8.792810E-01  2.338686E-02  0.000000E+00  7.683873E-03 -1.183044E-03  2.380934E-18 -1.665208E-01  0.000000E+00
  8.704900E-01  2.321308E-02  5.000000E-01  8.792810E-01  2.338686E-02  0.000000E+00  7.683873E-03 -1.183044E-03  2.380934E-18 -1.665208E-01  0.000000E+00
  8.590830E-01  2.495502E-02  5.000000E-01  8.677588E-01  2.514640E-02  0.000000E+00  7.829286E-03 -1.187113E-03  1.104606E-18 -1.762889E-01  0.000000E+00
  8.470810E-01  2.676203E-02  5.000000E-01  8.556356E-01  2.697165E-02  0.000000E+00  7.960659E-03 -1.191566E-03 -8.152873E-19 -1.861743E-01  0.000000E+00
  8.344780E-01  2.863764E-02  5.000000E-01  8.429053E-01  2.886620E-02  0.000000E+00  8.082558E-03 -1.197450E-03 -3.108637E-19 -1.964064E-01  0.000000E+00
  8.212700E-01  3.058573E-02  5.000000E-01  8.295639E-01  3.083397E-02  0.000000E+00  8.201918E-03 -1.205717E-03 -3.128503E-19 -2.073843E-01  0.000000E+00
  8.074550E-01  3.260971E-02  5.000000E-01  8.156094E-01  3.287839E-02  0.000000E+00  8.328878E-03 -1.216939E-03 -6.456300E-19 -2.196251E-01  0.000000E+00
  7.930350E-01  3.471068E-02  5.000000E-01  8.010438E-01  3.500057E-02  0.000000E+00  8.474624E-03 -1.230467E-03  6.445782E-19 -2.332866E-01  0.000000E+00
  7.780130E-01  3.688441E-02  5.000000E-01  7.858700E-01  3.719626E-02  0.000000E+00  8.645439E-03 -1.244323E-03  1.340749E-18 -2.479506E-01  0.000000E+00
  7.623950E-01  3.912051E-02  5.000000E-01  7.700943E-01  3.945493E-02  0.000000E+00  8.840329E-03 -1.257282E-03 -7.265027E-19 -2.634333E-01  0.000000E+00
  7.461930E-01  4.140953E-02  5.000000E-01  7.537287E-01  4.176707E-02  0.000000E+00  9.055742E-03 -1.269044E-03 -2.062099E-18 -2.798138E-01  0.000000E+00
  7.294180E-01  4.374154E-02  5.000000E-01  7.367843E-01  4.412263E-02  0.000000E+00  9.288369E-03 -1.278988E-03 -1.466240E-18 -2.969719E-01  0.000000E+00
  7.120900E-01  4.610523E-02  5.000000E-01  7.192813E-01  4.651019E-02  0.000000E+00  9.534656E-03 -1.286133E-03 -8.103187E-19 -3.147624E-01  0.000000E+00
  6.942280E-01  4.848816E-02  5.000000E-01  7.012389E-01  4.891719E-02  0.000000E+00  9.791085E-03 -1.289670E-03  1.536568E-18 -3.330597E-01  0.000000E+00
  6.758590E-01  5.087744E-02  5.000000E-01  6.826844E-01  5.133060E-02  0.000000E+00  1.005445E-02 -1.289224E-03  3.539535E-18 -3.517527E-01  0.000000E+00
  6.570120E-01  5.326017E-02  5.000000E-01  6.636471E-01  5.373739E-02  0.000000E+00  1.032208E-02 -1.284675E-03  3.587269E-18 -3.707721E-01  0.000000E+00
  6.377220E-01  5.562399E-02  5.000000E-01  6.441623E-01  5.612508E-02  0.000000E+00  1.059240E-02 -1.276269E-03  5.297125E-18 -3.901701E-01  0.000000E+00
  6.180260E-01  5.795770E-02  5.000000E-01  6.242674E-01  5.848236E-02  0.000000E+00  1.086565E-02 -1.264261E-03  8.583126E-18 -4.100688E-01  0.000000E+00
  5.979670E-01  6.024983E-02  5.000000E-01  6.040058E-01  6.079764E-02  0.000000E+00  1.114405E-02 -1.248667E-03  7.034448E-18 -4.306808E-01  0.000000E+00
  5.775910E-01  6.248855E-02  5.000000E-01  5.834240E-01  6.305896E-02  0.000000E+00  1.143149E-02 -1.229205E-03  3.689437E-18 -4.522096E-01  0.000000E+00
  5.569470E-01  6.466110E-02  5.000000E-01  5.625715E-01  6.525345E-02  0.000000E+00  1.173186E-02 -1.204803E-03 -3.398043E-19 -4.745762E-01  0.000000E+00
  5.360860E-01  6.675169E-02  5.000000E-01  5.414999E-01  6.736516E-02  0.000000E+00  1.204668E-02 -1.174290E-03 -5.253263E-18 -4.976540E-01  0.000000E+00
  5.150640E-01  6.874473E-02  5.000000E-01  5.202656E-01  6.937833E-02  0.000000E+00  1.237547E-02 -1.137057E-03 -4.383987E-18 -5.214750E-01  0.000000E+00
  4.939370E-01  7.062556E-02  5.000000E-01  4.989252E-01  7.127815E-02  0.000000E+00  1.271741E-02 -1.092508E-03 -2.024909E-18 -5.460433E-01  0.000000E+00
  4.727610E-01  7.238032E-02  5.000000E-01  4.775354E-01  7.305064E-02  0.000000E+00  1.307172E-02 -1.039963E-03 -3.372756E-18 -5.713431E-01  0.000000E+00
  5.770140E-06 -5.188013E-05  5.000000E-01  5.829536E-06 -1.130506E-04  0.000000E+00  3.752957E-03 -2.179905E-02 -5.894645E-13  9.104389E-01  0.000000E+00
  9.104010E-05 -3.816549E-04  5.000000E-01  9.196063E-05 -4.461558E-04  0.000000E+00  1.999880E-02 -3.479773E-02 -4.918836E-13  9.169004E-01  0.000000E+00
  4.796980E-04 -8.882063E-04  5.000000E-01  4.845435E-04 -9.578227E-04  0.000000E+00  3.856785E-02 -3.412641E-02 -3.163118E-13  6.046779E-01  0.000000E+00
  1.456590E-03 -1.466536E-03  5.000000E-01  1.471301E-03 -1.541993E-03  0.000000E+00  4.179019E-02 -1.998543E-02 -1.560465E-13  2.725386E-01  0.000000E+00
  3.096410E-03 -2.015886E-03  5.000000E-01  3.127681E-03 -2.096891E-03  0.000000E+00  3.422989E-02 -9.818438E-03 -5.862682E-14  1.587014E-01  0.000000E+00
  5.335170E-03 -2.514963E-03  5.000000E-01  5.389050E-03 -2.601008E-03  0.000000E+00  2.736080E-02 -5.287027E-03 -1.169327E-14  1.419517E-01  0.000000E+00
  8.129670E-03 -2.958095E-03  5.000000E-01  8.211772E-03 -3.048615E-03  0.000000E+00  2.316183E-02 -3.158459E-03  6.176036E-15  1.204717E-01  0.000000E+00
  1.145600E-02 -3.327521E-03  5.000000E-01  1.157169E-02 -3.421772E-03  0.000000E+00  1.998303E-02 -1.742636E-03  8.434806E-15  8.458249E-02  0.000000E+00
  1.529970E-02 -3.556749E-03  5.000000E-01  1.545421E-02 -3.653315E-03  0.000000E+00  1.658516E-02 -5.465941E-04  4.773792E-15  4.630148E-02  0.000000E+00
  1.962420E-02 -3.554004E-03  5.000000E-01  1.982238E-02 -3.650542E-03  0.000000E+00  1.304585E-02  2.392003E-04  1.141886E-15  3.834353E-02  0.000000E+00
  2.439810E-02 -3.342173E-03  5.000000E-01  2.464449E-02 -3.436572E-03  0.000000E+00  1.066034E-02  4.665842E-04 -7.630153E-16  9.147056E-02  0.000000E+00
  2.966100E-02 -3.112420E-03  5.000000E-01  2.996054E-02 -3.204498E-03  0.000000E+00  1.023301E-02  3.997634E-04 -1.346953E-15  1.569090E-01  0.000000E+00
  3.543640E-02 -2.928248E-03  5.000000E-01  3.579427E-02 -3.018466E-03  0.000000E+00  1.097371E-02  3.137312E-04 -1.234341E-15  1.751176E-01  0.000000E+00
  4.172970E-02 -2.770625E-03  5.000000E-01  4.215112E-02 -2.859252E-03  0.000000E+00  1.173457E-02  2.904370E-04 -8.294698E-16  1.612705E-01  0.000000E+00
  4.854440E-02 -2.601053E-03  5.000000E-01  4.903464E-02 -2.687968E-03  0.000000E+00  1.205645E-02  3.419353E-04 -4.016433E-16  1.425349E-01  0.000000E+00
  5.588220E-02 -2.365783E-03  5.000000E-01  5.644655E-02 -2.450322E-03  0.000000E+00  1.200466E-02  4.328647E-04 -9.817208E-17  1.305877E-01  0.000000E+00
  6.375220E-02 -2.048212E-03  5.000000E-01  6.439603E-02 -2.129543E-03  0.000000E+00  1.181368E-02  5.095977E-04  4.982462E-17  1.285386E-01  0.000000E+00
  7.217040E-02 -1.660646E-03  5.000000E-01  7.289924E-02 -1.738063E-03  0.000000E+00  1.166992E-02  5.528083E-04  8.451452E-17  1.318448E-01  0.000000E+00
  8.115500E-02 -1.223795E-03  5.000000E-01  8.197457E-02 -1.296800E-03  0.000000E+00  1.162298E-02  5.770569E-04  6.788383E-17  1.339956E-01  0.000000E+00
  9.072040E-02 -7.404469E-04  5.000000E-01  9.163657E-02 -8.085711E-04  0.000000E+00  1.162274E-02  6.034363E-04  4.059660E-17  1.319195E-01  0.000000E+00
  1.008780E-01 -1.991097E-04  5.000000E-01  1.018968E-01 -2.617670E-04  0.000000E+00  1.160963E-02  6.394282E-04  1.860286E-17  1.276931E-01  0.000000E+00
  1.116380E-01  4.132675E-04  5.000000E-01  1.127654E-01  3.567945E-04  0.000000E+00  1.155384E-02  6.850121E-04  6.111962E-18  1.237444E-01  0.000000E+00
  1.230100E-01  1.114781E-03  5.000000E-01  1.242523E-01  1.065392E-03  0.000000E+00  1.143694E-02  7.397306E-04  2.152309E-18  1.207882E-01  0.000000E+00
  1.350030E-01  1.926751E-03  5.000000E-01  1.363664E-01  1.885562E-03  0.000000E+00  1.123816E-02  8.014535E-04  1.164381E-18  1.194118E-01  0.000000E+00
  1.350030E-01  1.926751E-03  5.000000E-01  1.363664E-01  1.885562E-03  0.000000E+00  1.123816E-02  8.014535E-04  1.164381E-18  1.194118E-01  0.000000E+00
  1.476220E-01  2.873227E-03  5.000000E-01  1.491128E-01  2.841597E-03  0.000000E+00  1.094047E-02  8.661704E-04 -4.570529E-19  1.205657E-01  0.000000E+00
  1.608730E-01  3.979474E-03  5.000000E-01  1.624976E-01  3.959015E-03  0.000000E+00  1.054187E-02  9.282358E-04 -3.377980E-18  1.253901E-01  0.000000E+00
  1.747560E-01  5.268310E-03  5.000000E-01  1.765208E-01  5.260867E-03  0.000000E+00  1.006265E-02  9.799181E-04 -7.901245E-18  1.347320E-01  0.000000E+00
  1.892730E-01  6.751204E-03  5.000000E-01  1.911844E-01  6.758737E-03  0.000000E+00  9.546172E-03  1.009678E-03 -9.088097E-18  1.488960E-01  0.000000E+00
  2.044180E-01  8.412505E-03  5.000000E-01  2.064824E-01  8.436815E-03  0.000000E+00  9.060292E-03  1.003978E-03 -5.203351E-18  1.688191E-01  0.000000E+00
  2.201880E-01  1.018022E-02  5.000000E-01  2.224116E-01  1.022238E-02  0.000000E+00  8.665899E-03  9.649728E-04 -1.786413E-18  1.919388E-01  0.000000E+00
  2.365750E-01  1.199005E-02  5.000000E-01  2.389641E-01  1.205049E-02  0.000000E+00  8.370558E-03  9.108915E-04 -6.924535E-19  2.122212E-01  0.000000E+00
  2.535710E-01  1.380914E-02  5.000000E-01  2.561318E-01  1.388795E-02  0.000000E+00  8.144905E-03  8.532347E-04 -7.427881E-19  2.280637E-01  0.000000E+00
  2.711570E-01  1.561074E-02  5.000000E-01  2.738954E-01  1.570775E-02  0.000000E+00  7.966610E-03  7.938076E-04 -7.930559E-19  2.414015E-01  0.000000E+00
  2.893100E-01  1.736845E-02  5.000000E-01  2.922317E-01  1.748320E-02  0.000000E+00  7.829780E-03  7.323167E-04 -2.268329E-18  2.534134E-01  0.000000E+00
  3.080020E-01  1.905413E-02  5.000000E-01  3.111125E-01  1.918590E-02  0.000000E+00  7.730639E-03  6.699288E-04 -4.155375E-18  2.637650E-01  0.000000E+00
  3.271950E-01  2.064851E-02  5.000000E-01  3.304993E-01  2.079639E-02  0.000000E+00  7.660004E-03  6.083521E-04 -2.987770E-18  2.720514E-01  0.000000E+00
  3.468470E-01  2.213686E-02  5.000000E-01  3.503498E-01  2.229977E-02  0.000000E+00  7.607382E-03  5.485695E-04 -8.376088E-19  2.785948E-01  0.000000E+00
  3.669110E-01  2.351043E-02  5.000000E-01  3.706164E-01  2.368722E-02  0.000000E+00  7.564253E-03  4.915207E-04 -1.472532E-18  2.837315E-01  0.000000E+00
  3.873360E-01  2.476604E-02  5.000000E-01  3.912477E-01  2.495550E-02  0.000000E+00  7.524959E-03  4.372415E-04 -3.770488E-18  2.878220E-01  0.000000E+00
  4.080670E-01  2.590059E-02  5.000000E-01  4.121880E-01  2.610151E-02  0.000000E+00  7.487965E-03  3.844642E-04 -5.323583E-18  2.913562E-01  0.000000E+00
  4.290470E-01  2.690667E-02  5.000000E-01  4.333799E-01  2.711775E-02  0.000000E+00  7.454745E-03  3.321205E-04 -5.151823E-18  2.945169E-01  0.000000E+00
  4.502140E-01  2.777728E-02  5.000000E-01  4.547607E-01  2.799715E-02  0.000000E+00  7.426818E-03  2.801118E-04 -3.324060E-18  2.971421E-01  0.000000E+00
  4.715070E-01  2.850729E-02  5.000000E-01  4.762687E-01  2.873454E-02  0.000000E+00  7.404969E-03  2.285623E-04 -1.430123E-18  2.991466E-01  0.000000E+00
  4.928620E-01  2.909320E-02  5.000000E-01  4.978393E-01  2.932637E-02  0.000000E+00  7.390296E-03  1.772724E-04 -1.108884E-18  3.005858E-01  0.000000E+00
  5.142140E-01  2.953167E-02  5.000000E-01  5.194070E-01  2.976926E-02  0.000000E+00  7.384823E-03  1.256420E-04  1.429848E-18  3.015472E-01  0.000000E+00
  5.355000E-01  2.981890E-02  5.000000E-01  5.409079E-01  3.005939E-02  0.000000E+00  7.390613E-03  7.330651E-05  3.374623E-18  3.019881E-01  0.000000E+00
  5.566560E-01  2.995317E-02  5.000000E-01  5.622776E-01  3.019502E-02  0.000000E+00  7.408283E-03  2.061778E-05  2.904424E-18  3.017524E-01  0.000000E+00
  4.727610E-01  7.238032E-02  5.000000E-01  4.775354E-01  7.305064E-02  0.000000E+00  1.307172E-02 -1.039963E-03 -3.372756E-18 -5.713431E-01  0.000000E+00
  4.515970E-01  7.399592E-02  5.000000E-01  4.561576E-01  7.468255E-02  0.000000E+00  1.343775E-02 -9.786878E-04 -7.379415E-18 -5.973094E-01  0.000000E+00
  4.305020E-01  7.546042E-02  5.000000E-01  4.348496E-01  7.616184E-02  0.000000E+00  1.381509E-02 -9.080980E-04 -1.142334E-17 -6.239991E-01  0.000000E+00
  4.095340E-01  7.676330E-02  5.000000E-01  4.136698E-01  7.747787E-02  0.000000E+00  1.420546E-02 -8.281367E-04 -1.323254E-17 -6.519430E-01  0.000000E+00
  3.887520E-01  7.789689E-02  5.000000E-01  3.926780E-01  7.862291E-02  0.000000E+00  1.461544E-02 -7.376191E-04 -1.612568E-17 -6.817472E-01  0.000000E+00
  3.682080E-01  7.885198E-02  5.000000E-01  3.719265E-01  7.958765E-02  0.000000E+00  1.505437E-02 -6.328137E-04 -2.145201E-17 -7.134729E-01  0.000000E+00
  3.479570E-01  7.961559E-02  5.000000E-01  3.514710E-01  8.035897E-02  0.000000E+00  1.552832E-02 -5.088970E-04 -2.802371E-17 -7.467068E-01  0.000000E+00
  3.280470E-01  8.017282E-02  5.000000E-01  3.313599E-01  8.092183E-02  0.000000E+00  1.603742E-02 -3.627212E-04 -3.351584E-17 -7.811413E-01  0.000000E+00
  3.085240E-01  8.051279E-02  5.000000E-01  3.116397E-01  8.126523E-02  0.000000E+00  1.657912E-02 -1.928486E-04 -3.581478E-17 -8.167254E-01  0.000000E+00
  2.894320E-01  8.062841E-02  5.000000E-01  2.923549E-01  8.138202E-02  0.000000E+00  1.715219E-02  3.550538E-06 -3.814581E-17 -8.535272E-01  0.000000E+00
  2.708110E-01  8.051233E-02  5.000000E-01  2.735459E-01  8.126476E-02  0.000000E+00  1.776209E-02  2.310505E-04 -4.086623E-17 -8.930361E-01  0.000000E+00
  2.526960E-01  8.015713E-02  5.000000E-01  2.552479E-01  8.090598E-02  0.000000E+00  1.843704E-02  4.968964E-04 -4.349139E-17 -9.389360E-01  0.000000E+00
  2.351200E-01  7.955725E-02  5.000000E-01  2.374944E-01  8.030004E-02  0.000000E+00  1.923407E-02  8.267894E-04 -4.371560E-17 -9.918350E-01  0.000000E+00
  2.181120E-01  7.868217E-02  5.000000E-01  2.203147E-01  7.941612E-02  0.000000E+00  2.019137E-02  1.266666E-03 -3.977114E-17 -1.045616E+00  0.000000E+00
  2.017010E-01  7.747731E-02  5.000000E-01  2.037380E-01  7.819910E-02  0.000000E+00  2.127529E-02  1.844104E-03 -3.463962E-17 -1.094560E+00  0.000000E+00
  1.859190E-01  7.591044E-02  5.000000E-01  1.877966E-01  7.661641E-02  0.000000E+00  2.240786E-02  2.559803E-03 -2.908687E-17 -1.135802E+00  0.000000E+00
  1.707920E-01  7.396711E-02  5.000000E-01  1.725168E-01  7.465345E-02  0.000000E+00  2.350976E-02  3.411442E-03 -2.522067E-17 -1.165048E+00  0.000000E+00
  1.563470E-01  7.164172E-02  5.000000E-01  1.579259E-01  7.230457E-02  0.000000E+00  2.449888E-02  4.389952E-03 -2.122523E-17 -1.176959E+00  0.000000E+00
  1.426070E-01  6.893936E-02  5.000000E-01  1.440472E-01  6.957492E-02  0.000000E+00  2.528840E-02  5.463541E-03 -1.997385E-17 -1.167633E+00  0.000000E+00
  1.295900E-01  6.588214E-02  5.000000E-01  1.308987E-01  6.648683E-02  0.000000E+00  2.580467E-02  6.576344E-03 -2.392080E-17 -1.136074E+00  0.000000E+00
  1.173060E-01  6.251010E-02  5.000000E-01  1.184907E-01  6.308074E-02  0.000000E+00  2.600914E-02  7.667185E-03 -2.524881E-17 -1.083335E+00  0.000000E+00
  1.057600E-01  5.887347E-02  5.000000E-01  1.068281E-01  5.940738E-02  0.000000E+00  2.590235E-02  8.684605E-03 -2.385614E-17 -1.011638E+00  0.000000E+00
  9.495290E-02  5.502886E-02  5.000000E-01  9.591182E-02  5.552395E-02  0.000000E+00  2.551819E-02  9.588619E-03 -2.065022E-17 -9.246426E-01  0.000000E+00
  8.487680E-02  5.103741E-02  5.000000E-01  8.573396E-02  5.149218E-02  0.000000E+00  2.491408E-02  1.035716E-02 -2.421609E-17 -8.256125E-01  0.000000E+00
  8.487680E-02  5.103741E-02  5.000000E-01  8.573396E-02  5.149218E-02  0.000000E+00  2.491408E-02  1.035716E-02 -2.421609E-17 -8.256125E-01  0.000000E+00
  7.552090E-02  4.696056E-02  5.000000E-01  7.628358E-02  4.737416E-02  0.000000E+00  2.414072E-02  1.097934E-02 -3.264103E-17 -7.157091E-01  0.000000E+00
  6.687020E-02  4.285680E-02  5.000000E-01  6.754551E-02  4.322896E-02  0.000000E+00  2.322231E-02  1.142526E-02 -3.518334E-17 -5.975954E-01  0.000000E+00
  5.889940E-02  3.878962E-02  5.000000E-01  5.949422E-02  3.912070E-02  0.000000E+00  2.219268E-02  1.165978E-02 -3.730307E-17 -4.783031E-01  0.000000E+00
  5.157140E-02  3.482338E-02  5.000000E-01  5.209221E-02  3.511441E-02  0.000000E+00  2.114123E-02  1.170751E-02 -3.941490E-17 -3.659966E-01  0.000000E+00
  4.484650E-02  3.101076E-02  5.000000E-01  4.529940E-02  3.126329E-02  0.000000E+00  2.020429E-02  1.168488E-02 -3.908382E-17 -2.648979E-01  0.000000E+00
  3.869820E-02  2.738203E-02  5.000000E-01  3.908901E-02  2.759791E-02  0.000000E+00  1.951258E-02  1.175362E-02 -4.968245E-17 -1.740200E-01  0.000000E+00
  3.311550E-02  2.394892E-02  5.000000E-01  3.344993E-02  2.413013E-02  0.000000E+00  1.912535E-02  1.202982E-02 -8.162595E-17 -8.810477E-02  0.000000E+00
  2.809130E-02  2.071879E-02  5.000000E-01  2.837499E-02  2.086738E-02  0.000000E+00  1.889790E-02  1.247625E-02 -1.295778E-16  8.194515E-03  0.000000E+00
  2.362330E-02  1.769560E-02  5.000000E-01  2.386187E-02  1.781366E-02  0.000000E+00  1.844023E-02  1.274046E-02 -1.918219E-16  1.250009E-01  0.000000E+00
  1.966610E-02  1.490331E-02  5.000000E-01  1.986471E-02  1.499317E-02  0.000000E+00  1.753880E-02  1.234062E-02 -2.284666E-16  2.365532E-01  0.000000E+00
  1.609460E-02  1.239505E-02  5.000000E-01  1.625714E-02  1.245958E-02  0.000000E+00  1.651137E-02  1.137255E-02 -5.973950E-17  3.156449E-01  0.000000E+00
  1.282740E-02  1.019016E-02  5.000000E-01  1.295694E-02  1.023242E-02  0.000000E+00  1.593142E-02  1.053722E-02  7.382594E-16  3.648415E-01  0.000000E+00
  9.860990E-03  8.269348E-03  5.000000E-01  9.960576E-03  8.292213E-03  0.000000E+00  1.620311E-02  1.047327E-02  2.728661E-15  4.021668E-01  0.000000E+00
  7.251350E-03  6.587023E-03  5.000000E-01  7.324582E-03  6.592898E-03  0.000000E+00  1.740995E-02  1.143483E-02  5.762691E-15  4.421803E-01  0.000000E+00
  5.038810E-03  5.110029E-03  5.000000E-01  5.089697E-03  5.100988E-03  0.000000E+00  1.944838E-02  1.348993E-02  6.757102E-15  4.875357E-01  0.000000E+00
  3.239710E-03  3.821477E-03  5.000000E-01  3.272429E-03  3.799423E-03  0.000000E+00  2.197441E-02  1.678717E-02 -4.363075E-15  5.449100E-01  0.000000E+00
  1.861880E-03  2.712223E-03  5.000000E-01  1.880684E-03  2.678967E-03  0.000000E+00  2.372865E-02  2.113092E-02 -4.822181E-14  6.310581E-01  0.000000E+00
  9.013910E-04  1.781314E-03  5.000000E-01  9.104951E-04  1.738657E-03  0.000000E+00  2.171222E-02  2.431414E-02 -1.490633E-13  7.675844E-01  0.000000E+00
  3.295630E-04  1.037072E-03  5.000000E-01  3.328923E-04  9.868989E-04  0.000000E+00  1.312451E-02  1.966979E-02 -3.078918E-13  9.384073E-01  0.000000E+00
  7.194000E-05  4.946698E-04  5.000000E-01  7.266764E-05  4.390189E-04  0.000000E+00  2.332404E-03  4.320102E-04 -4.742804E-13  1.022995E+00  0.000000E+00
  4.516100E-06  1.683555E-04  5.000000E-01  4.562832E-06  1.094091E-04  0.000000E+00 -2.265530E-03 -2.161776E-02 -5.717216E-13  9.270034E-01  0.000000E+00
 -1.112850E-09  6.004024E-05  5.000000E-01  0.000000E+00  0.000000E+00  0.000000E+00 -1.308429E-03 -2.258496E-02 -6.006130E-13  8.271644E-01  0.000000E+00